<LesHouchesEvents version="1.0">
<!--
File generated with PYTHIA 6.427
-->
<init>
    2212    2212  4.000000E+03  4.000000E+03     0     0     7     7     3    72
  9.372457E-05  9.372457E-05  1.000000E+00   216
  4.870947E-03  4.870947E-03  1.000000E+00   217
  0.000000E+00  0.000000E+00  1.000000E+00   218
  0.000000E+00  0.000000E+00  1.000000E+00   219
  0.000000E+00  0.000000E+00  1.000000E+00   220
  0.000000E+00  0.000000E+00  1.000000E+00   221
  0.000000E+00  0.000000E+00  1.000000E+00   222
  0.000000E+00  0.000000E+00  1.000000E+00   223
  0.000000E+00  0.000000E+00  1.000000E+00   224
  0.000000E+00  0.000000E+00  1.000000E+00   225
  6.845237E-02  1.459409E-02  1.000000E+00   226
  0.000000E+00  0.000000E+00  1.000000E+00   227
  0.000000E+00  0.000000E+00  1.000000E+00   228
  0.000000E+00  0.000000E+00  1.000000E+00   229
  1.386389E-01  2.490028E-02  1.000000E+00   230
  0.000000E+00  0.000000E+00  1.000000E+00   231
  0.000000E+00  0.000000E+00  1.000000E+00   232
  0.000000E+00  0.000000E+00  1.000000E+00   233
  0.000000E+00  0.000000E+00  1.000000E+00   234
  5.497713E-06  5.497713E-06  1.000000E+00   235
  0.000000E+00  0.000000E+00  1.000000E+00   236
  2.502225E-03  2.502225E-03  1.000000E+00   237
  3.402173E-03  3.402173E-03  1.000000E+00   238
  0.000000E+00  0.000000E+00  1.000000E+00   239
  0.000000E+00  0.000000E+00  1.000000E+00   240
  3.866771E-03  3.866771E-03  1.000000E+00   241
  0.000000E+00  0.000000E+00  1.000000E+00   242
  1.656281E-03  1.656281E-03  1.000000E+00   243
  7.658101E-03  4.421406E-03  1.000000E+00   244
  1.031619E-06  1.031619E-06  1.000000E+00   246
  5.178164E-04  5.178164E-04  1.000000E+00   247
  2.880554E-03  2.880554E-03  1.000000E+00   248
  0.000000E+00  0.000000E+00  1.000000E+00   249
  0.000000E+00  0.000000E+00  1.000000E+00   250
  0.000000E+00  0.000000E+00  1.000000E+00   251
  0.000000E+00  0.000000E+00  1.000000E+00   252
  0.000000E+00  0.000000E+00  1.000000E+00   253
  4.399835E-03  4.399835E-03  1.000000E+00   254
  6.643884E-12  6.643884E-12  1.000000E+00   256
  4.708665E-02  1.215772E-02  1.000000E+00   258
  6.250952E-02  1.733702E-02  1.000000E+00   259
  0.000000E+00  0.000000E+00  1.000000E+00   261
  0.000000E+00  0.000000E+00  1.000000E+00   262
  0.000000E+00  0.000000E+00  1.000000E+00   263
  6.301194E-11  6.301194E-11  1.000000E+00   264
  0.000000E+00  0.000000E+00  1.000000E+00   265
  2.393000E-02  1.381599E-02  1.000000E+00   271
  1.658378E-02  8.291890E-03  1.000000E+00   272
  1.458436E-02  8.420286E-03  1.000000E+00   273
  5.318278E-04  5.318278E-04  1.000000E+00   274
  4.920905E-04  4.920905E-04  1.000000E+00   275
  4.688315E-03  4.688315E-03  1.000000E+00   276
  0.000000E+00  0.000000E+00  1.000000E+00   277
  0.000000E+00  0.000000E+00  1.000000E+00   278
  0.000000E+00  0.000000E+00  1.000000E+00   279
  6.110960E-04  6.110960E-04  1.000000E+00   280
  4.284828E-15  4.284828E-15  1.000000E+00   281
  0.000000E+00  0.000000E+00  1.000000E+00   282
  1.918571E-04  1.918571E-04  1.000000E+00   283
  0.000000E+00  0.000000E+00  1.000000E+00   284
  0.000000E+00  0.000000E+00  1.000000E+00   285
  2.190605E-03  2.190605E-03  1.000000E+00   286
  2.437697E-07  2.437697E-07  1.000000E+00   287
  0.000000E+00  0.000000E+00  1.000000E+00   288
  4.467289E-04  4.467289E-04  1.000000E+00   289
  0.000000E+00  0.000000E+00  1.000000E+00   290
  0.000000E+00  0.000000E+00  1.000000E+00   291
  0.000000E+00  0.000000E+00  1.000000E+00   292
  0.000000E+00  0.000000E+00  1.000000E+00   293
  6.154348E-05  6.154348E-05  1.000000E+00   294
  0.000000E+00  0.000000E+00  1.000000E+00   295
  0.000000E+00  0.000000E+00  1.000000E+00   296
</init>
<event>
    12   226  1.000000E+00  3.669388E+02  7.886444E-03  1.045959E-01
      -2   -1    0    0    0  101  0.0000000000E+00  0.0000000000E+00  1.3630182735E+02  1.3630182735E+02  0.0000000000E+00 0. 9.
       2   -1    0    0  101    0  0.0000000000E+00  0.0000000000E+00 -1.1058415430E+03  1.1058415430E+03  0.0000000000E+00 0. 9.
-1000024    2    1    2    0    0 -2.4913809123E+02  1.3937784021E+01 -2.8188787397E+02  4.6271465037E+02  2.6903535800E+02 0. 9.
 1000024    2    1    2    0    0  2.4913809123E+02 -1.3937784021E+01 -6.8765184172E+02  7.7942872003E+02  2.6903535800E+02 0. 9.
 1000022    1    3    0    0    0 -2.3455794333E+02 -3.7503750070E+01 -2.0366354953E+02  3.3842855671E+02  1.2896157000E+02 0. 9.
     -24    2    3    0    0    0 -1.4580147898E+01  5.1441534091E+01 -7.8224324434E+01  1.2428609367E+02  8.0431188000E+01 0. 9.
 1000022    1    4    0    0    0  1.2250809103E+02  3.0454556462E+01 -5.1856868433E+02  5.4907219861E+02  1.2896157000E+02 0. 9.
      24    2    4    0    0    0  1.2663000020E+02 -4.4392340483E+01 -1.6908315739E+02  2.3035652142E+02  8.0431188000E+01 0. 9.
       3    1    6    0  102    0 -4.5982491311E+01  1.6698163990E+01 -4.7935853594E+01  6.8493169350E+01  5.0000000000E-01 0. 9.
      -4    1    6    0    0  102  3.1402343414E+01  3.4743370101E+01 -3.0288470840E+01  5.5792924316E+01  1.5000000000E+00 0. 9.
     -11    1    8    0    0    0  1.2399702895E+02 -1.9153941699E+01 -1.1321811901E+02  1.6899845899E+02  5.1000000000E-04 0. 9.
      12    1    8    0    0    0  2.6329712499E+00 -2.5238398784E+01 -5.5865038385E+01  6.1358062425E+01  0.0000000000E+00 0. 9.
</event>
<event>
    16   259  1.000000E+00  1.128359E+03  7.988327E-03  9.148064E-02
       2   -1    0    0  101    0  0.0000000000E+00  0.0000000000E+00  1.1735047921E+03  1.1735047921E+03  0.0000000000E+00 0. 9.
      21   -1    0    0  102  101  0.0000000000E+00  0.0000000000E+00 -1.1004427347E+03  1.1004427347E+03  0.0000000000E+00 0. 9.
 2000002    2    1    2  103    0  7.6046109898E+01  6.3398035972E+02  1.8262296188E+02  1.1932054361E+03  9.9129912700E+02 0. 9.
 1000021    2    1    2  102  103 -7.6046109898E+01 -6.3398035972E+02 -1.0956090446E+02  1.0807420907E+03  8.6503512500E+02 0. 9.
 1000021    2    3    0  103  104  1.3918897155E+02  5.1950048585E+02  7.0606375347E+01  1.0210413078E+03  8.6503512500E+02 0. 9.
       2    1    3    0  104    0 -6.3142861654E+01  1.1447987387E+02  1.1201658654E+02  1.7216412826E+02  3.3000000000E-01 0. 9.
 1000023    2    4    0    0    0  3.2347647901E+01 -2.1936692218E+02  2.7010465508E+02  4.4093997091E+02  2.6889276000E+02 0. 9.
       4    1    4    0  102    0 -2.0960468906E+01 -1.1196823755E+02  3.4877166883E+01  1.1914232769E+02  1.5000000000E+00 0. 9.
      -4    1    4    0    0  103 -8.7433288893E+01 -3.0264519999E+02 -4.1454272642E+02  5.2065979210E+02  1.5000000000E+00 0. 9.
 1000023    2    5    0    0    0  1.4421852586E+01  2.1048863066E+02  2.2184182088E+02  4.0746848141E+02  2.6889276000E+02 0. 9.
       3    1    5    0  103    0  3.0363280918E+02  2.1408278655E+02 -1.7316795984E+02  4.0989232076E+02  5.0000000000E-01 0. 9.
      -3    1    5    0    0  104 -1.7886569021E+02  9.4929068645E+01  2.1932514307E+01  2.0368050568E+02  5.0000000000E-01 0. 9.
 1000022    1    7    0    0    0 -2.2106774040E+01 -1.2262234469E+02  1.2724801909E+02  2.1988199966E+02  1.2896157000E+02 0. 9.
      25    1    7    0    0    0  5.4454421941E+01 -9.6744577491E+01  1.4285663599E+02  2.2105797125E+02  1.2701893900E+02 0. 9.
 1000022    1   10    0    0    0 -1.2008521268E+01  1.3835829852E+02  9.3944657355E+01  2.1152755975E+02  1.2896157000E+02 0. 9.
      25    1   10    0    0    0  2.6430373854E+01  7.2130332137E+01  1.2789716353E+02  1.9594092165E+02  1.2701893900E+02 0. 9.
</event>
<event>
    10   230  1.000000E+00  2.794816E+02  7.862141E-03  1.083611E-01
      -1   -1    0    0    0  101  0.0000000000E+00  0.0000000000E+00  5.0075230483E+02  5.0075230483E+02  0.0000000000E+00 0. 9.
       2   -1    0    0  101    0  0.0000000000E+00  0.0000000000E+00 -1.5989984410E+02  1.5989984410E+02  0.0000000000E+00 0. 9.
 1000023    2    1    2    0    0  3.5157096360E+01  6.7321974060E+01  2.2207064273E+02  3.5691309356E+02  2.6889276000E+02 0. 9.
 1000024    2    1    2    0    0 -3.5157096360E+01 -6.7321974060E+01  1.1878181800E+02  3.0373905537E+02  2.6903535800E+02 0. 9.
 1000022    1    3    0    0    0  5.5587142535E+01  5.1716803330E+01  1.1285265412E+02  1.8743363156E+02  1.2896157000E+02 0. 9.
      25    1    3    0    0    0 -2.0430046176E+01  1.5605170730E+01  1.0921798861E+02  1.6947946200E+02  1.2701893900E+02 0. 9.
 1000022    1    4    0    0    0  5.1919898952E+01 -7.9299295532E+01  7.5691215293E+01  1.7704321729E+02  1.2896157000E+02 0. 9.
      24    2    4    0    0    0 -8.7076995312E+01  1.1977321472E+01  4.3090602707E+01  1.2669583808E+02  8.0431188000E+01 0. 9.
      -3    1    8    0    0  102 -5.1893017593E+01  4.5254859055E+01  1.4265485023E+01  7.0318145638E+01  5.0000000000E-01 0. 9.
       4    1    8    0  102    0 -3.5183977718E+01 -3.3277537583E+01  2.8825117683E+01  5.6377692442E+01  1.5000000000E+00 0. 9.
</event>
<event>
    20   259  1.000000E+00  9.346504E+02  7.971061E-03  9.344523E-02
       2   -1    0    0  101    0  0.0000000000E+00  0.0000000000E+00  2.5270181634E+03  2.5270181634E+03  0.0000000000E+00 0. 9.
      21   -1    0    0  102  101  0.0000000000E+00  0.0000000000E+00 -3.4692853246E+02  3.4692853246E+02  0.0000000000E+00 0. 9.
 2000002    2    1    2  103    0  3.9281657026E+00 -8.9867336600E+01  1.2916690607E+03  1.6306975471E+03  9.9129912700E+02 0. 9.
 1000021    2    1    2  102  103 -3.9281657026E+00  8.9867336600E+01  8.8842057021E+02  1.2432491487E+03  8.6503512500E+02 0. 9.
 1000021    2    3    0  103  104 -9.4775764605E+01 -1.4483056557E+02  1.1340659458E+03  1.4367844915E+03  8.6503512500E+02 0. 9.
       2    1    3    0  104    0  9.8703930308E+01  5.4963228965E+01  1.5760311493E+02  1.9391305560E+02  3.3000000000E-01 0. 9.
-1000024    2    4    0    0    0 -6.8204695782E+01  2.6962252720E+02  5.4552489971E+02  6.6882406338E+02  2.6903535800E+02 0. 9.
       4    1    4    0  102    0  1.4916727232E+02 -2.7715788584E+02  1.6740983779E+02  3.5650480025E+02  1.5000000000E+00 0. 9.
      -3    1    4    0    0  103 -8.4890742244E+01  9.7402695241E+01  1.7548583271E+02  2.1792028506E+02  5.0000000000E-01 0. 9.
 1000024    2    5    0    0    0 -2.2119633832E+02  1.1518606702E+02  3.3351276184E+02  4.9578870125E+02  2.6903535800E+02 0. 9.
      -2    1    5    0    0  104  8.8335904253E+01  3.6341931015E+01  1.0218437482E+01  9.6065047206E+01  3.3000000000E-01 0. 9.
       1    1    5    0  103    0  3.8084669459E+01 -2.9635856360E+02  7.9033474645E+02  8.4493074308E+02  3.3000000000E-01 0. 9.
 1000022    1    7    0    0    0  3.3906587487E+01  1.8575873957E+02  2.7979147123E+02  3.6134515343E+02  1.2896157000E+02 0. 9.
     -24    2    7    0    0    0 -1.0211128327E+02  8.3863787629E+01  2.6573342849E+02  3.0747890995E+02  8.0431188000E+01 0. 9.
 1000022    1   10    0    0    0 -5.0029786340E+01  4.5580519622E+01  2.2188276998E+02  2.6541215767E+02  1.2896157000E+02 0. 9.
      24    2   10    0    0    0 -1.7116655198E+02  6.9605547395E+01  1.1162999187E+02  2.3037654358E+02  8.0431188000E+01 0. 9.
       3    1   14    0  105    0 -8.6246229799E+01  3.8639382330E+01  2.2683508429E+02  2.4573526301E+02  5.0000000000E-01 0. 9.
      -4    1   14    0    0  105 -1.5865053470E+01  4.5224405299E+01  3.8898344191E+01  6.1743646937E+01  1.5000000000E+00 0. 9.
      -1    1   16    0    0  106 -1.7046859762E+02  4.5563457533E+01  1.0537281190E+02  2.0552155562E+02  3.3000000000E-01 0. 9.
       2    1   16    0  106    0 -6.9795435536E-01  2.4042089861E+01  6.2571799670E+00  2.4854987957E+01  3.3000000000E-01 0. 9.
</event>
<event>
    12   226  1.000000E+00  3.217960E+02  7.874707E-03  1.063782E-01
       1   -1    0    0  101    0  0.0000000000E+00  0.0000000000E+00  1.4138497108E+02  1.4138497108E+02  0.0000000000E+00 0. 9.
      -1   -1    0    0    0  101  0.0000000000E+00  0.0000000000E+00 -8.4577426299E+02  8.4577426299E+02  0.0000000000E+00 0. 9.
-1000024    2    1    2    0    0 -2.6281235485E+00  1.7653818476E+02 -1.7149556485E+02  3.6464145449E+02  2.6903535800E+02 0. 9.
 1000024    2    1    2    0    0  2.6281235485E+00 -1.7653818476E+02 -5.3289372706E+02  6.2251777959E+02  2.6903535800E+02 0. 9.
 1000022    1    3    0    0    0  4.9643330569E+01  2.2409019773E+01 -6.7380478524E+01  1.5536357314E+02  1.2896157000E+02 0. 9.
     -24    2    3    0    0    0 -5.2271454118E+01  1.5412916498E+02 -1.0411508633E+02  2.0927788134E+02  8.0431188000E+01 0. 9.
 1000022    1    4    0    0    0 -6.8609726602E+01 -5.1606398576E+01 -2.9376645699E+02  3.3211493906E+02  1.2896157000E+02 0. 9.
      24    2    4    0    0    0  7.1237850150E+01 -1.2493178618E+02 -2.3912727007E+02  2.9040284052E+02  8.0431188000E+01 0. 9.
       1    1    6    0  102    0 -2.9839171407E+00  5.3834926545E+01  3.6354933623E+00  5.4040991752E+01  3.3000000000E-01 0. 9.
      -2    1    6    0    0  102 -4.9287536977E+01  1.0029423844E+02 -1.0775057969E+02  1.5523688959E+02  3.3000000000E-01 0. 9.
     -13    1    8    0    0    0 -1.6410332541E+01 -1.3424786927E+01 -1.8603503925E+01  2.8206833223E+01  1.0566000000E-01 0. 9.
      14    1    8    0    0    0  8.7648182692E+01 -1.1150699925E+02 -2.2052376614E+02  2.6219600730E+02  0.0000000000E+00 0. 9.
</event>
<event>
    18   258  1.000000E+00  9.651780E+02  7.974002E-03  9.310403E-02
       2   -1    0    0  101    0  0.0000000000E+00  0.0000000000E+00  1.4332674771E+03  1.4332674771E+03  0.0000000000E+00 0. 9.
      21   -1    0    0  102  101  0.0000000000E+00  0.0000000000E+00 -6.6142262261E+02  6.6142262261E+02  0.0000000000E+00 0. 9.
 1000002    2    1    2  103    0  2.4609851122E+02  7.2930322363E+01  5.6217826148E+02  1.1683374904E+03  9.9150632100E+02 0. 9.
 1000021    2    1    2  102  103 -2.4609851122E+02 -7.2930322363E+01  2.0966659302E+02  9.2635260935E+02  8.6503512500E+02 0. 9.
 1000021    2    3    0  103  104  2.2002940947E+02  1.2818415395E+02  3.8421515530E+02  9.8017915271E+02  8.6503512500E+02 0. 9.
       2    1    3    0  104    0  2.6069101754E+01 -5.5253831588E+01  1.7796310618E+02  1.8815833767E+02  3.3000000000E-01 0. 9.
 1000024    2    4    0    0    0 -1.4935305806E+02 -3.5330272011E+02 -9.7906114349E+01  4.7863846384E+02  2.6903535800E+02 0. 9.
      -2    1    4    0    0  103  3.2184661920E+01  7.7436978150E+01  6.4240834905E+01  1.0563773860E+02  3.3000000000E-01 0. 9.
       1    1    4    0  102    0 -1.2893011509E+02  2.0293541960E+02  2.4333187247E+02  3.4207640691E+02  3.3000000000E-01 0. 9.
 1000023    2    5    0    0    0  4.7099708780E+00 -1.6372356562E+02 -1.0382018191E+02  3.3152607185E+02  2.6889276000E+02 0. 9.
       2    1    5    0  103    0 -4.1219724339E+01  9.4403237075E+00  2.6910426535E+01  5.0124498427E+01  3.3000000000E-01 0. 9.
      -2    1    5    0    0  104  2.5653916293E+02  2.8246739586E+02  4.6112491068E+02  5.9852858243E+02  3.3000000000E-01 0. 9.
 1000022    1    7    0    0    0 -9.4909681928E+01 -1.0582402455E+02  8.8842592409E+00  1.9213690040E+02  1.2896157000E+02 0. 9.
      24    2    7    0    0    0 -5.4443376128E+01 -2.4747869557E+02 -1.0679037359E+02  2.8650156345E+02  8.0431188000E+01 0. 9.
 1000022    1   10    0    0    0 -2.9328919158E+01 -5.6232548418E+01 -6.2583312046E+01  1.5674834125E+02  1.2896157000E+02 0. 9.
      25    1   10    0    0    0  3.4038890036E+01 -1.0749101720E+02 -4.1236869864E+01  1.7477773060E+02  1.2701893900E+02 0. 9.
      -3    1   14    0    0  105  5.6400366939E+00 -1.1854085808E+02 -2.1418873265E+01  1.2059337950E+02  5.0000000000E-01 0. 9.
       4    1   14    0  105    0 -6.0083412822E+01 -1.2893783749E+02 -8.5371500325E+01  1.6590818395E+02  1.5000000000E+00 0. 9.
</event>
<event>
    13   258  1.000000E+00  9.304640E+02  7.970650E-03  9.349308E-02
      21   -1    0    0  101  102  0.0000000000E+00  0.0000000000E+00  4.2732544129E+02  4.2732544129E+02  0.0000000000E+00 0. 9.
       2   -1    0    0  102    0  0.0000000000E+00  0.0000000000E+00 -2.0425911557E+03  2.0425911557E+03  0.0000000000E+00 0. 9.
 1000021    2    1    2  101  103  1.1964498703E+00 -8.7449674634E+00 -8.9217989615E+02  1.2427182466E+03  8.6503512500E+02 0. 9.
 1000002    2    1    2  103    0 -1.1964498703E+00  8.7449674634E+00 -7.2308581824E+02  1.2271983503E+03  9.9150632100E+02 0. 9.
 1000022    1    3    0    0    0  8.1286236956E+01 -1.9544592945E+01 -1.6753118908E+02  2.2734825551E+02  1.2896157000E+02 0. 9.
       5    1    3    0  101    0 -2.3897690079E+02  2.8104642929E+02 -5.3189537348E+02  6.4732741550E+02  4.8000000000E+00 0. 9.
      -5    1    3    0    0  103  1.5888711370E+02 -2.7024680380E+02 -1.9275333358E+02  3.6804257563E+02  4.8000000000E+00 0. 9.
 1000024    2    4    0    0    0 -3.5412779881E+02  1.5651760054E+02 -7.9010059798E+01  4.7804484159E+02  2.6903535800E+02 0. 9.
       1    1    4    0  103    0  3.5293134894E+02 -1.4777263308E+02 -6.4407575845E+02  7.4915350875E+02  3.3000000000E-01 0. 9.
 1000022    1    8    0    0    0 -2.7373243303E+02  1.5419027540E+02 -1.1530232737E+02  3.5864996745E+02  1.2896157000E+02 0. 9.
      24    2    8    0    0    0 -8.0395365784E+01  2.3273251401E+00  3.6292267577E+01  1.1939487414E+02  8.0431188000E+01 0. 9.
     -13    1   11    0    0    0 -8.5495236343E+01  2.0667389452E+01  1.2370744542E+01  8.8823549291E+01  1.0566000000E-01 0. 9.
      14    1   11    0    0    0  5.0998705590E+00 -1.8340064312E+01  2.3921523035E+01  3.0571324849E+01  0.0000000000E+00 0. 9.
</event>
<event>
    18   259  1.000000E+00  9.437586E+02  7.971948E-03  9.334201E-02
       2   -1    0    0  101    0  0.0000000000E+00  0.0000000000E+00  7.5189842512E+02  7.5189842512E+02  0.0000000000E+00 0. 9.
      21   -1    0    0  102  101  0.0000000000E+00  0.0000000000E+00 -1.2752464462E+03  1.2752464462E+03  0.0000000000E+00 0. 9.
 2000002    2    1    2  103    0 -7.5729768922E+01  1.3951875438E+02 -3.9172022726E-01  1.0039295759E+03  9.9129912700E+02 0. 9.
 1000021    2    1    2  102  103  7.5729768922E+01 -1.3951875438E+02 -5.2295630088E+02  1.0232152954E+03  8.6503512500E+02 0. 9.
 1000021    2    3    0  103  104 -8.5467248525E+01  2.2622912567E+02  5.6147500596E+01  8.9995698629E+02  8.6503512500E+02 0. 9.
       2    1    3    0  104    0  9.7374796030E+00 -8.6710371286E+01 -5.6539220823E+01  1.0397258960E+02  3.3000000000E-01 0. 9.
 1000024    2    4    0    0    0 -4.2866378388E+01 -3.5088233829E+02 -2.8720020864E+02  5.2898008036E+02  2.6903535800E+02 0. 9.
      -6    1    4    0    0  103  8.2428929735E+01  2.4603559438E+02 -6.8275615684E+01  3.1935535357E+02  1.7320000000E+02 0. 9.
       5    1    4    0  102    0  3.6167217575E+01 -3.4672010476E+01 -1.6748047655E+02  1.7487986151E+02  4.8000000000E+00 0. 9.
 1000023    2    5    0    0    0 -6.8937906348E+01  8.0632918344E+01  2.1645188615E+02  3.6112163858E+02  2.6889276000E+02 0. 9.
       1    1    5    0  103    0  7.3444890294E-01  2.2738761862E+02 -2.9975834028E+02  3.7624571756E+02  3.3000000000E-01 0. 9.
      -1    1    5    0    0  104 -1.7263791080E+01 -8.1791411289E+01  1.3945395473E+02  1.6258963015E+02  3.3000000000E-01 0. 9.
 1000022    1    7    0    0    0 -8.8288546570E+00 -2.7243444779E+02 -2.7978458116E+02  4.1135018587E+02  1.2896157000E+02 0. 9.
      24    2    7    0    0    0 -3.4037523731E+01 -7.8447890496E+01 -7.4156274829E+00  1.1762989450E+02  8.0431188000E+01 0. 9.
 1000022    1   10    0    0    0 -5.4319757327E+01  4.0363314524E+00  1.0247920468E+02  1.7349352131E+02  1.2896157000E+02 0. 9.
      25    1   10    0    0    0 -1.4618149020E+01  7.6596586892E+01  1.1397268147E+02  1.8762811727E+02  1.2701893900E+02 0. 9.
      -1    1   14    0    0  105  1.8972641855E+00  1.5954472599E+01 -4.0026256526E+00  1.6561241482E+01  3.3000000000E-01 0. 9.
       2    1   14    0  105    0 -3.5934787917E+01 -9.4402363095E+01 -3.4130018303E+00  1.0106865301E+02  3.3000000000E-01 0. 9.
</event>
<event>
    12   226  1.000000E+00  4.068951E+02  7.895710E-03  1.032340E-01
      -2   -1    0    0    0  101  0.0000000000E+00  0.0000000000E+00  2.1486942231E+02  2.1486942231E+02  0.0000000000E+00 0. 9.
       2   -1    0    0  101    0  0.0000000000E+00  0.0000000000E+00 -8.6443650023E+02  8.6443650023E+02  0.0000000000E+00 0. 9.
-1000024    2    1    2    0    0 -2.0838201310E+01 -3.0454784432E+02 -1.4691770645E+02  4.3260658390E+02  2.6903535800E+02 0. 9.
 1000024    2    1    2    0    0  2.0838201310E+01  3.0454784432E+02 -5.0264937146E+02  6.4669933864E+02  2.6903535800E+02 0. 9.
 1000022    1    3    0    0    0  3.8109983902E+01 -7.8283392170E+01 -2.7489013411E+01  1.5801073621E+02  1.2896157000E+02 0. 9.
     -24    2    3    0    0    0 -5.8948185211E+01 -2.2626445215E+02 -1.1942869304E+02  2.7459584769E+02  8.0431188000E+01 0. 9.
 1000022    1    4    0    0    0  2.6817329839E+01  1.2866092296E+02 -1.2556987800E+02  2.2287144966E+02  1.2896157000E+02 0. 9.
      24    2    4    0    0    0 -5.9791285292E+00  1.7588692135E+02 -3.7707949346E+02  4.2382788898E+02  8.0431188000E+01 0. 9.
       1    1    6    0  102    0 -7.5329326399E+01 -1.4799437434E+02 -9.3248823568E+01  1.9045286622E+02  3.3000000000E-01 0. 9.
      -2    1    6    0    0  102  1.6381141188E+01 -7.8270077802E+01 -2.6179869468E+01  8.4142981473E+01  3.3000000000E-01 0. 9.
     -11    1    8    0    0    0 -1.2351396253E+01  6.4020326879E+01 -2.2919866919E+02  2.3829223488E+02  5.1000000000E-04 0. 9.
      12    1    8    0    0    0  6.3722677240E+00  1.1186659447E+02 -1.4788082427E+02  1.8553565410E+02  0.0000000000E+00 0. 9.
</event>
<event>
    10   230  1.000000E+00  3.611699E+02  7.885026E-03  1.048078E-01
      -1   -1    0    0    0  101  0.0000000000E+00  0.0000000000E+00  1.0631001367E+02  1.0631001367E+02  0.0000000000E+00 0. 9.
       2   -1    0    0  101    0  0.0000000000E+00  0.0000000000E+00 -1.6901939916E+03  1.6901939916E+03  0.0000000000E+00 0. 9.
 1000023    2    1    2    0    0 -1.7121260245E+02  1.6967103790E+02 -1.2620824022E+03  1.3127289601E+03  2.6889276000E+02 0. 9.
 1000024    2    1    2    0    0  1.7121260245E+02 -1.6967103790E+02 -3.2180157572E+02  4.8377504517E+02  2.6903535800E+02 0. 9.
 1000022    1    3    0    0    0 -5.7305279650E+01  9.6565385054E+01 -5.0254962527E+02  5.3084459220E+02  1.2896157000E+02 0. 9.
      25    1    3    0    0    0 -1.1390732280E+02  7.3105652845E+01 -7.5953277697E+02  7.8188436793E+02  1.2701893900E+02 0. 9.
 1000022    1    4    0    0    0  3.0221157016E+01 -1.4253062845E+02 -1.9998672709E+02  2.7902343258E+02  1.2896157000E+02 0. 9.
      24    2    4    0    0    0  1.4099144543E+02 -2.7140409451E+01 -1.2181484863E+02  2.0475161259E+02  8.0431188000E+01 0. 9.
      -1    1    8    0    0  102  2.8522093737E+01  6.4998824669E+00 -7.1078657237E+01  7.6863793283E+01  3.3000000000E-01 0. 9.
       2    1    8    0  102    0  1.1246935169E+02 -3.3640291918E+01 -5.0736191389E+01  1.2788781931E+02  3.3000000000E-01 0. 9.
</event>
<event>
    12   226  1.000000E+00  4.261451E+02  7.899861E-03  1.026364E-01
       2   -1    0    0  101    0  0.0000000000E+00  0.0000000000E+00  1.2876826445E+03  1.2876826445E+03  0.0000000000E+00 0. 9.
      -2   -1    0    0    0  101  0.0000000000E+00  0.0000000000E+00 -1.7055914081E+02  1.7055914081E+02  0.0000000000E+00 0. 9.
 1000024    2    1    2    0    0 -2.8301869698E+01  3.2926978349E+02  8.6195117121E+02  9.6154013517E+02  2.6903535800E+02 0. 9.
-1000024    2    1    2    0    0  2.8301869698E+01 -3.2926978349E+02  2.5517233251E+02  4.9670165017E+02  2.6903535800E+02 0. 9.
 1000022    1    3    0    0    0 -5.1952254451E+01  1.8464705801E+02  3.2245574719E+02  3.9673967310E+02  1.2896157000E+02 0. 9.
      24    2    3    0    0    0  2.3650384752E+01  1.4462272548E+02  5.3949542402E+02  5.6480046208E+02  8.0431188000E+01 0. 9.
 1000022    1    4    0    0    0  3.1137667348E+01 -1.6388983370E+02  2.2838505006E+02  3.1083797957E+02  1.2896157000E+02 0. 9.
     -24    2    4    0    0    0 -2.8357976496E+00 -1.6537994980E+02  2.6787282442E+01  1.8586367059E+02  8.0431188000E+01 0. 9.
     -13    1    6    0    0    0 -1.7591568058E+01  1.1013797267E+02  3.2238835342E+02  3.4113647984E+02  1.0566000000E-01 0. 9.
      14    1    6    0    0    0  4.1241952810E+01  3.4484752804E+01  2.1710707060E+02  2.2366398224E+02  0.0000000000E+00 0. 9.
       1    1    8    0  102    0 -3.7617040887E+01 -7.0699479105E+01 -4.6250167834E+00  8.0218188655E+01  3.3000000000E-01 0. 9.
      -2    1    8    0    0  102  3.4781243238E+01 -9.4680470690E+01  3.1412299226E+01  1.0564548194E+02  3.3000000000E-01 0. 9.
</event>
<event>
    18   258  1.000000E+00  1.149628E+03  7.990042E-03  9.129035E-02
      21   -1    0    0  101  102  0.0000000000E+00  0.0000000000E+00  6.9118658741E+02  6.9118658741E+02  0.0000000000E+00 0. 9.
       2   -1    0    0  102    0  0.0000000000E+00  0.0000000000E+00 -2.0137680506E+03  2.0137680506E+03  0.0000000000E+00 0. 9.
 1000021    2    1    2  101  103  2.9193183227E+02  6.0887988316E+02 -3.2426104558E+02  1.1442857598E+03  8.6503512500E+02 0. 9.
 1000002    2    1    2  103    0 -2.9193183227E+02 -6.0887988316E+02 -9.9832041763E+02  1.5606688783E+03  9.9150632100E+02 0. 9.
-1000024    2    3    0    0    0 -1.5176461860E+01  1.6588422562E+01 -5.2805814329E+01  2.7508903766E+02  2.6903535800E+02 0. 9.
       6    1    3    0  101    0  4.1901845498E+02  4.1322211381E+02 -2.2088168837E+02  6.5200915731E+02  1.7320000000E+02 0. 9.
      -5    1    3    0    0  103 -1.1191016085E+02  1.7906934679E+02 -5.0573542886E+01  2.1718756479E+02  4.8000000000E+00 0. 9.
 1000021    2    4    0  103  104 -2.7642216981E+02 -4.7033745037E+02 -7.2423679829E+02  1.2531684806E+03  8.6503512500E+02 0. 9.
       2    1    4    0  104    0 -1.5509662469E+01 -1.3854243279E+02 -2.7408361934E+02  3.0750039773E+02  3.3000000000E-01 0. 9.
 1000022    1    5    0    0    0 -7.7940203403E+00  6.6345716622E-01  5.4177014061E+01  1.4009790262E+02  1.2896157000E+02 0. 9.
     -24    2    5    0    0    0 -7.3824415195E+00  1.5924965396E+01 -1.0698282839E+02  1.3499113504E+02  8.0431188000E+01 0. 9.
 1000023    2    8    0    0    0 -4.6007718787E+00 -4.9944321700E+02 -2.3984517646E+02  6.1586826446E+02  2.6889276000E+02 0. 9.
       1    1    8    0  103    0 -1.6370321180E+02  1.6057500967E+02 -3.5858910771E+02  4.2563990926E+02  3.3000000000E-01 0. 9.
      -1    1    8    0    0  104 -1.0811818613E+02 -1.3146924303E+02 -1.2580251412E+02  2.1166030684E+02  3.3000000000E-01 0. 9.
      15    1   11    0    0    0  2.7615484754E+01 -8.7496720114E+00 -1.3178151646E+01  3.1874647736E+01  1.7770000000E+00 0. 9.
     -16    1   11    0    0    0 -3.4997926273E+01  2.4674637407E+01 -9.3804676744E+01  1.0311648730E+02  0.0000000000E+00 0. 9.
 1000022    1   12    0    0    0 -2.8646852784E+01 -2.7239450394E+02 -9.5884298176E+01  3.1755990478E+02  1.2896157000E+02 0. 9.
      25    1   12    0    0    0  2.4046080905E+01 -2.2704871306E+02 -1.4396087829E+02  2.9830835968E+02  1.2701893900E+02 0. 9.
</event>
<event>
    10   230  1.000000E+00  3.259516E+02  7.875853E-03  1.062013E-01
      -1   -1    0    0    0  101  0.0000000000E+00  0.0000000000E+00  1.0904069035E+02  1.0904069035E+02  0.0000000000E+00 0. 9.
       2   -1    0    0  101    0  0.0000000000E+00  0.0000000000E+00 -9.7774929568E+02  9.7774929568E+02  0.0000000000E+00 0. 9.
 1000023    2    1    2    0    0 -1.7134765924E+02 -6.7399964609E+01 -4.0226380602E+02  5.1770866476E+02  2.6889276000E+02 0. 9.
 1000024    2    1    2    0    0  1.7134765924E+02  6.7399964609E+01 -4.6644479931E+02  5.6908132127E+02  2.6903535800E+02 0. 9.
 1000022    1    3    0    0    0 -1.2326928289E+02 -6.3375436585E+01 -2.5074526152E+02  3.1419108004E+02  1.2896157000E+02 0. 9.
      25    1    3    0    0    0 -4.8078376346E+01 -4.0245280240E+00 -1.5151854450E+02  2.0351758472E+02  1.2701893900E+02 0. 9.
 1000022    1    4    0    0    0  1.8678617259E+02  5.0183987262E+01 -3.9822725239E+02  4.6111119910E+02  1.2896157000E+02 0. 9.
      24    2    4    0    0    0 -1.5438513352E+01  1.7215977347E+01 -6.8217546920E+01  1.0797012217E+02  8.0431188000E+01 0. 9.
     -13    1    8    0    0    0  1.6791853689E+00  3.2410972948E+01 -7.6917020184E+01  8.3483710920E+01  1.0566000000E-01 0. 9.
      14    1    8    0    0    0 -1.7117698721E+01 -1.5194995601E+01  8.6994732649E+00  2.4486411249E+01  0.0000000000E+00 0. 9.
</event>
<event>
    15   258  1.000000E+00  1.139672E+03  7.989243E-03  9.137888E-02
      21   -1    0    0  101  102  0.0000000000E+00  0.0000000000E+00  1.7572399587E+03  1.7572399587E+03  0.0000000000E+00 0. 9.
       2   -1    0    0  102    0  0.0000000000E+00  0.0000000000E+00 -1.9553608257E+03  1.9553608257E+03  0.0000000000E+00 0. 9.
 1000021    2    1    2  101  103 -6.5721737528E+02  3.5109827133E+01  1.3669729405E+03  1.7464444354E+03  8.6503512500E+02 0. 9.
 1000002    2    1    2  103    0  6.5721737528E+02 -3.5109827133E+01 -1.5650938074E+03  1.9661563490E+03  9.9150632100E+02 0. 9.
-1000024    2    3    0    0    0 -6.0419878598E+02 -1.0967879551E+01  8.1477096614E+02  1.0494799753E+03  2.6903535800E+02 0. 9.
       4    1    3    0  101    0  4.6447556001E+00 -5.6796842857E+01 -5.4523736127E+01  7.8883096506E+01  1.5000000000E+00 0. 9.
      -3    1    3    0    0  103 -5.7663344903E+01  1.0287454954E+02  6.0672571045E+02  6.1808136358E+02  5.0000000000E-01 0. 9.
 1000023    2    4    0    0    0  6.0431987993E+02  3.8425342955E+02 -1.0671963198E+03  1.3130363730E+03  2.6889276000E+02 0. 9.
       2    1    4    0  103    0  5.2897495352E+01 -4.1936325668E+02 -4.9789748762E+02  6.5311997608E+02  3.3000000000E-01 0. 9.
 1000022    1    5    0    0    0 -4.6154949182E+02 -5.8361633229E+01  5.2457621144E+02  7.1291324983E+02  1.2896157000E+02 0. 9.
     -24    2    5    0    0    0 -1.4264929415E+02  4.7393753678E+01  2.9019475470E+02  3.3656672544E+02  8.0431188000E+01 0. 9.
 1000022    1    8    0    0    0  3.0062283347E+02  2.1639650350E+02 -6.0955853732E+02  7.2484083197E+02  1.2896157000E+02 0. 9.
      25    1    8    0    0    0  3.0369704645E+02  1.6785692605E+02 -4.5763778245E+02  5.8819554099E+02  1.2701893900E+02 0. 9.
       3    1   11    0  104    0 -8.1835121810E+01  1.4080459818E+01  8.0318549224E+01  1.1552733815E+02  5.0000000000E-01 0. 9.
      -4    1   11    0    0  104 -6.0814172341E+01  3.3313293860E+01  2.0987620548E+02  2.2103938729E+02  1.5000000000E+00 0. 9.
</event>
<event>
    10   230  1.000000E+00  3.102816E+02  7.871456E-03  1.068837E-01
       2   -1    0    0  101    0  0.0000000000E+00  0.0000000000E+00  5.9542780881E+02  5.9542780881E+02  0.0000000000E+00 0. 9.
      -1   -1    0    0    0  101  0.0000000000E+00  0.0000000000E+00 -2.0975158132E+02  2.0975158132E+02  0.0000000000E+00 0. 9.
 1000024    2    1    2    0    0 -1.2408018527E+02  9.2396339254E+01  1.5532254620E-01  3.1034339668E+02  2.6903535800E+02 0. 9.
 1000023    2    1    2    0    0  1.2408018527E+02 -9.2396339254E+01  3.8552090494E+02  4.9483599345E+02  2.6889276000E+02 0. 9.
 1000022    1    3    0    0    0 -1.3256182066E+02  2.5847110786E+01  5.1480988398E+01  1.9370619024E+02  1.2896157000E+02 0. 9.
      24    2    3    0    0    0  8.4816353927E+00  6.6549228468E+01 -5.1325665852E+01  1.1663720644E+02  8.0431188000E+01 0. 9.
 1000022    1    4    0    0    0  6.5832191456E+01 -6.5616500956E+00  2.0341300617E+02  2.4976963446E+02  1.2896157000E+02 0. 9.
      25    1    4    0    0    0  5.8247993811E+01 -8.5834689159E+01  1.8210789877E+02  2.4506635898E+02  1.2701893900E+02 0. 9.
      -1    1    6    0    0  102 -1.6270445056E+01  5.7040581367E+01 -5.1024901850E-01  5.9318838146E+01  3.3000000000E-01 0. 9.
       2    1    6    0  102    0  2.4752080449E+01  9.5086471012E+00 -5.0815416834E+01  5.7318368297E+01  3.3000000000E-01 0. 9.
</event>
<event>
    17   258  1.000000E+00  9.926461E+02  7.976571E-03  9.280817E-02
      21   -1    0    0  101  102  0.0000000000E+00  0.0000000000E+00  1.0879696315E+03  1.0879696315E+03  0.0000000000E+00 0. 9.
       2   -1    0    0  102    0  0.0000000000E+00  0.0000000000E+00 -1.0158850129E+03  1.0158850129E+03  0.0000000000E+00 0. 9.
 1000021    2    1    2  101  103  2.6559152482E+02  2.2163504892E+02  3.8508101506E+02  1.0080843757E+03  8.6503512500E+02 0. 9.
 1000002    2    1    2  103    0 -2.6559152482E+02 -2.2163504892E+02 -3.1299639642E+02  1.0957702687E+03  9.9150632100E+02 0. 9.
-1000024    2    3    0    0    0  1.9807729885E+02  3.2111358391E+01  1.0266833527E+02  3.5097943897E+02  2.6903535800E+02 0. 9.
       6    1    3    0  101    0 -1.1517638224E+02  3.0584203399E+02  1.2926505148E+02  3.9180689417E+02  1.7320000000E+02 0. 9.
      -5    1    3    0    0  103  1.8269060821E+02 -1.1631834346E+02  1.5314762831E+02  2.6529804260E+02  4.8000000000E+00 0. 9.
 1000024    2    4    0    0    0 -3.4549344777E+02  2.9327894296E+02 -1.2347947384E+02  5.4129979230E+02  2.6903535800E+02 0. 9.
       1    1    4    0  103    0  7.9901922948E+01 -5.1491399188E+02 -1.8951692258E+02  5.5447047638E+02  3.3000000000E-01 0. 9.
 1000022    1    5    0    0    0  1.4873533209E+02 -5.6302931182E+01  7.9320412582E+01  2.1957921910E+02  1.2896157000E+02 0. 9.
     -24    2    5    0    0    0  4.9341966757E+01  8.8414289573E+01  2.3347922689E+01  1.3140021987E+02  8.0431188000E+01 0. 9.
 1000022    1    8    0    0    0 -9.0085613897E+01  1.7120723328E+02 -4.6431962129E+01  2.3709565201E+02  1.2896157000E+02 0. 9.
      24    2    8    0    0    0 -2.5540783387E+02  1.2207170968E+02 -7.7047511709E+01  3.0420414029E+02  8.0431188000E+01 0. 9.
       1    1   11    0  104    0  2.1832846944E+01  4.2605530845E+01  5.2070885653E+01  7.0734648490E+01  3.3000000000E-01 0. 9.
      -2    1   11    0    0  104  2.7509119814E+01  4.5808758728E+01 -2.8722962964E+01  6.0665571378E+01  3.3000000000E-01 0. 9.
      -1    1   13    0    0  105 -6.2111232703E+01  5.6240716347E+01  5.4535527246E+00  8.3968288898E+01  3.3000000000E-01 0. 9.
       2    1   13    0  105    0 -1.9329660117E+02  6.5830993330E+01 -8.2501064433E+01  2.2023585139E+02  3.3000000000E-01 0. 9.
</event>
<event>
    10   230  1.000000E+00  3.234699E+02  7.875170E-03  1.063066E-01
       2   -1    0    0  101    0  0.0000000000E+00  0.0000000000E+00  3.8293603289E+02  3.8293603289E+02  0.0000000000E+00 0. 9.
      -1   -1    0    0    0  101  0.0000000000E+00  0.0000000000E+00 -3.5573133705E+02  3.5573133705E+02  0.0000000000E+00 0. 9.
 1000024    2    1    2    0    0 -1.3579330141E+02 -1.1769147638E+02  1.9145948977E+02  3.7593598444E+02  2.6903535800E+02 0. 9.
 1000023    2    1    2    0    0  1.3579330141E+02  1.1769147638E+02 -1.6425479393E+02  3.6273138550E+02  2.6889276000E+02 0. 9.
 1000022    1    3    0    0    0 -1.6047021914E+02 -9.3752204832E+01  1.7710823687E+02  2.8729528581E+02  1.2896157000E+02 0. 9.
      24    2    3    0    0    0  2.4676917739E+01 -2.3939271551E+01  1.4351252904E+01  8.8640698635E+01  8.0431188000E+01 0. 9.
 1000022    1    4    0    0    0  6.4720759312E+01  9.8434965164E+01 -6.9486957557E+01  1.8798335793E+02  1.2896157000E+02 0. 9.
      25    1    4    0    0    0  7.1072542093E+01  1.9256511219E+01 -9.4767836372E+01  1.7474802757E+02  1.2701893900E+02 0. 9.
     -13    1    6    0    0    0 -1.9094650702E+01 -2.6677685928E+01 -1.4787602565E+01  3.5985955115E+01  1.0566000000E-01 0. 9.
      14    1    6    0    0    0  4.3771568441E+01  2.7384143774E+00  2.9138855468E+01  5.2654743519E+01  0.0000000000E+00 0. 9.
</event>
<event>
    22   276  1.000000E+00  1.264073E+03  7.998774E-03  9.033540E-02
      -1   -1    0    0    0  101  0.0000000000E+00  0.0000000000E+00  1.2395431226E+03  1.2395431226E+03  0.0000000000E+00 0. 9.
       1   -1    0    0  101    0  0.0000000000E+00  0.0000000000E+00 -1.3008679387E+03  1.3008679387E+03  0.0000000000E+00 0. 9.
-1000001    2    1    2    0  102 -1.1122259654E+02 -7.7423166134E+02 -1.5156342656E+02  1.2741456760E+03  9.9431916400E+02 0. 9.
 2000001    2    1    2  102    0  1.1122259654E+02  7.7423166134E+02  9.0238610437E+01  1.2662653854E+03  9.9170554500E+02 0. 9.
 1000021    2    3    0  103  102 -1.0606690828E+02 -6.2712633057E+02 -2.4301470084E+02  1.1008540030E+03  8.6503512500E+02 0. 9.
      -1    1    3    0    0  103 -5.1556882632E+00 -1.4710533077E+02  9.1451274286E+01  1.7329167300E+02  3.3000000000E-01 0. 9.
 1000021    2    4    0  102  104  1.1805236581E+02  6.6513048295E+02 -3.7430657913E+01  1.0981902121E+03  8.6503512500E+02 0. 9.
       1    1    4    0  104    0 -6.8297692707E+00  1.0910117839E+02  1.2766926835E+02  1.6807517323E+02  3.3000000000E-01 0. 9.
-1000024    2    5    0    0    0 -1.9128789736E+02 -1.5719154136E+02  7.4459014649E+01  3.7312787228E+02  2.6903535800E+02 0. 9.
       4    1    5    0  103    0  1.1767428167E+02  2.1828594957E+00 -2.1260686654E+02  2.4301426119E+02  1.5000000000E+00 0. 9.
      -3    1    5    0    0  102 -3.2453292583E+01 -4.7211764871E+02 -1.0486684895E+02  4.8471186949E+02  5.0000000000E-01 0. 9.
 1000024    2    7    0    0    0 -4.8664521387E+01  4.9725804211E+02 -1.6695305238E+02  5.9151258789E+02  2.6903535800E+02 0. 9.
      -6    1    7    0    0  104  9.7232429891E+01  4.4871433529E+01  2.4895295059E+02  3.2162618453E+02  1.7320000000E+02 0. 9.
       5    1    7    0  102    0  6.9484457311E+01  1.2300100731E+02 -1.1943055612E+02  1.8505143972E+02  4.8000000000E+00 0. 9.
 1000022    1    9    0    0    0 -7.6154209209E+01 -5.0179948918E+00 -8.3979668271E+00  1.5008749527E+02  1.2896157000E+02 0. 9.
     -24    2    9    0    0    0 -1.1513368816E+02 -1.5217354647E+02  8.2856981476E+01  2.2304037700E+02  8.0431188000E+01 0. 9.
 1000022    1   12    0    0    0  5.2716882192E+00  2.3772788100E+02 -4.8314159786E+00  2.7054900706E+02  1.2896157000E+02 0. 9.
      24    2   12    0    0    0 -5.3936209606E+01  2.5953016111E+02 -1.6212163640E+02  3.2096358084E+02  8.0431188000E+01 0. 9.
       1    1   16    0  105    0 -9.1491541919E+01 -1.0470642900E+02  1.9483024295E+01  1.4040596730E+02  3.3000000000E-01 0. 9.
      -2    1   16    0    0  105 -2.3642146236E+01 -4.7467117466E+01  6.3373957181E+01  8.2634409709E+01  3.3000000000E-01 0. 9.
      -1    1   18    0    0  106 -5.0399263122E+01  2.0665987848E+02 -8.8822577044E+01  2.3051670262E+02  3.3000000000E-01 0. 9.
       2    1   18    0  106    0 -3.5369464842E+00  5.2870282630E+01 -7.3299059359E+01  9.0446878214E+01  3.3000000000E-01 0. 9.
</event>
<event>
    12   226  1.000000E+00  3.946300E+02  7.892964E-03  1.036336E-01
      -2   -1    0    0    0  101  0.0000000000E+00  0.0000000000E+00  1.6804716001E+02  1.6804716001E+02  0.0000000000E+00 0. 9.
       2   -1    0    0  101    0  0.0000000000E+00  0.0000000000E+00 -9.2960971752E+02  9.2960971752E+02  0.0000000000E+00 0. 9.
-1000024    2    1    2    0    0  2.8695844388E+02  3.1744002159E+01 -3.5018778782E+02  5.2760244577E+02  2.6903535800E+02 0. 9.
 1000024    2    1    2    0    0 -2.8695844388E+02 -3.1744002159E+01 -4.1137476969E+02  5.7005443176E+02  2.6903535800E+02 0. 9.
 1000022    1    3    0    0    0  2.1670357107E+02  1.9789459532E+01 -1.3416521053E+02  2.8632752344E+02  1.2896157000E+02 0. 9.
     -24    2    3    0    0    0  7.0254872803E+01  1.1954542626E+01 -2.1602257729E+02  2.4127492233E+02  8.0431188000E+01 0. 9.
 1000022    1    4    0    0    0 -2.5284132424E+02 -5.8394027273E+01 -2.4165282489E+02  3.7731389052E+02  1.2896157000E+02 0. 9.
      24    2    4    0    0    0 -3.4117119637E+01  2.6650025114E+01 -1.6972194480E+02  1.9274054124E+02  8.0431188000E+01 0. 9.
       1    1    6    0  102    0  1.9338215598E+01 -8.5749556956E-02 -3.4783132890E-01  1.9344348583E+01  3.3000000000E-01 0. 9.
      -2    1    6    0    0  102  5.0916657206E+01  1.2040292183E+01 -2.1567474596E+02  2.2193057375E+02  3.3000000000E-01 0. 9.
     -11    1    8    0    0    0  1.6201858014E+01  3.6279343414E+01 -8.2902213824E+01  9.1931866178E+01  5.1000000000E-04 0. 9.
      12    1    8    0    0    0 -5.0318977651E+01 -9.6293183003E+00 -8.6819730972E+01  1.0080867507E+02  0.0000000000E+00 0. 9.
</event>
<event>
    20   259  1.000000E+00  9.746562E+02  7.974896E-03  9.300079E-02
       2   -1    0    0  101    0  0.0000000000E+00  0.0000000000E+00  1.1087894702E+03  1.1087894702E+03  0.0000000000E+00 0. 9.
      21   -1    0    0  102  101  0.0000000000E+00  0.0000000000E+00 -9.0065085655E+02  9.0065085655E+02  0.0000000000E+00 0. 9.
 2000002    2    1    2  103    0  2.3910468123E+02 -1.6523884254E+02 -1.1934744086E+02  1.0399003291E+03  9.9129912700E+02 0. 9.
 1000021    2    1    2  102  103 -2.3910468123E+02  1.6523884254E+02  3.2748605455E+02  9.6953999767E+02  8.6503512500E+02 0. 9.
 1000021    2    3    0  103  104  1.7565107464E+02 -2.9660016240E+01 -1.0825571062E+02  8.8979665258E+02  8.6503512500E+02 0. 9.
       2    1    3    0  104    0  6.3453606587E+01 -1.3557882630E+02 -1.1091730250E+01  1.5010367653E+02  3.3000000000E-01 0. 9.
-1000024    2    4    0    0    0 -1.2621064741E+02 -2.3038114402E+02  2.8074559062E+02  4.6925761533E+02  2.6903535800E+02 0. 9.
       4    1    4    0  102    0 -2.0065009209E+02  2.3160160006E+02 -7.4665453065E+00  3.0652530060E+02  1.5000000000E+00 0. 9.
      -3    1    4    0    0  103  8.7756058279E+01  1.6401838649E+02  5.4207009237E+01  1.9375708174E+02  5.0000000000E-01 0. 9.
 1000023    2    5    0    0    0  3.5400128115E+01 -6.2001678142E+01  1.3396011074E+02  3.0878148392E+02  2.6889276000E+02 0. 9.
       3    1    5    0  103    0  3.4986250105E+01  2.6379614852E+02 -7.4225006874E+01  2.7626445178E+02  5.0000000000E-01 0. 9.
      -3    1    5    0    0  104  1.0526469642E+02 -2.3145448662E+02 -1.6799081448E+02  3.0475071688E+02  5.0000000000E-01 0. 9.
 1000022    1    7    0    0    0 -1.4431252352E+02 -9.4851416123E+01  1.8445217540E+02  2.8368395643E+02  1.2896157000E+02 0. 9.
     -24    2    7    0    0    0  1.8101876109E+01 -1.3552972790E+02  9.6293415215E+01  1.8557365890E+02  8.0431188000E+01 0. 9.
 1000022    1   10    0    0    0 -1.2153964560E+01 -4.7322016711E+01  1.4989364194E+02  2.0368181694E+02  1.2896157000E+02 0. 9.
      23    2   10    0    0    0  4.7554092675E+01 -1.4679661431E+01 -1.5933531199E+01  1.0509966698E+02  9.1187600000E+01 0. 9.
       1    1   14    0  105    0  4.9918326617E+01 -8.8386711773E+01  5.6674297272E+01  1.1625891373E+02  3.3000000000E-01 0. 9.
      -2    1   14    0    0  105 -3.1816450508E+01 -4.7143016123E+01  3.9619117943E+01  6.9314745175E+01  3.3000000000E-01 0. 9.
      16    1   16    0    0    0  4.4316130147E+01  3.3140607795E+01 -1.4239247339E+01  5.7139963607E+01  0.0000000000E+00 0. 9.
     -16    1   16    0    0    0  3.2379625285E+00 -4.7820269226E+01 -1.6942838601E+00  4.7959703377E+01  0.0000000000E+00 0. 9.
</event>
<event>
    12   226  1.000000E+00  2.735080E+02  7.860219E-03  1.086716E-01
      -2   -1    0    0    0  101  0.0000000000E+00  0.0000000000E+00  1.9792588950E+02  1.9792588950E+02  0.0000000000E+00 0. 9.
       2   -1    0    0  101    0  0.0000000000E+00  0.0000000000E+00 -4.6855905326E+02  4.6855905326E+02  0.0000000000E+00 0. 9.
-1000024    2    1    2    0    0  4.3595818924E+01  2.2934831185E+01  1.1223857087E+01  2.7373819743E+02  2.6903535800E+02 0. 9.
 1000024    2    1    2    0    0 -4.3595818924E+01 -2.2934831185E+01 -2.8185702085E+02  3.9274674532E+02  2.6903535800E+02 0. 9.
 1000022    1    3    0    0    0 -1.9855051364E+00 -4.3454909545E+01 -4.9392038941E+01  1.4478581229E+02  1.2896157000E+02 0. 9.
     -24    2    3    0    0    0  4.5581324060E+01  6.6389740730E+01  6.0615896028E+01  1.2895238513E+02  8.0431188000E+01 0. 9.
 1000022    1    4    0    0    0 -3.6980041597E+01 -7.3892124319E+01 -2.4798420530E+02  2.9147010503E+02  1.2896157000E+02 0. 9.
      24    2    4    0    0    0 -6.6157773266E+00  5.0957293134E+01 -3.3872815550E+01  1.0127664030E+02  8.0431188000E+01 0. 9.
       3    1    6    0  102    0 -5.7535889594E+00  6.1714241195E+01  2.8700602034E+01  6.8306119120E+01  5.0000000000E-01 0. 9.
      -4    1    6    0    0  102  5.1334913019E+01  4.6754995349E+00  3.1915293994E+01  6.0646266013E+01  1.5000000000E+00 0. 9.
     -15    1    8    0    0    0 -2.6958842970E+01  4.8322837816E+00  1.4817291666E+01  3.1190383809E+01  1.7770000000E+00 0. 9.
      16    1    8    0    0    0  2.0343065644E+01  4.6125009352E+01 -4.8690107216E+01  7.0086256486E+01  0.0000000000E+00 0. 9.
</event>
<event>
    10   230  1.000000E+00  3.760313E+02  7.888636E-03  1.042701E-01
       2   -1    0    0  101    0  0.0000000000E+00  0.0000000000E+00  8.6265999376E+02  8.6265999376E+02  0.0000000000E+00 0. 9.
      -1   -1    0    0    0  101  0.0000000000E+00  0.0000000000E+00 -1.6716866651E+02  1.6716866651E+02  0.0000000000E+00 0. 9.
 1000024    2    1    2    0    0 -2.0843304903E+02  1.6004228775E+02  4.1967140625E+02  5.6352638170E+02  2.6903535800E+02 0. 9.
 1000023    2    1    2    0    0  2.0843304903E+02 -1.6004228775E+02  2.7581992100E+02  4.6630227857E+02  2.6889276000E+02 0. 9.
 1000022    1    3    0    0    0 -1.9657706360E+02  1.0843561778E+02  3.7900497764E+02  4.5899529927E+02  1.2896157000E+02 0. 9.
      24    2    3    0    0    0 -1.1855985434E+01  5.1606669969E+01  4.0666428605E+01  1.0453108243E+02  8.0431188000E+01 0. 9.
 1000022    1    4    0    0    0  1.2600293964E+02 -1.2820345222E+02  1.6432906325E+02  2.7558663524E+02  1.2896157000E+02 0. 9.
      25    1    4    0    0    0  8.2430109390E+01 -3.1838835529E+01  1.1149085776E+02  1.9071564333E+02  1.2701893900E+02 0. 9.
     -11    1    6    0    0    0 -4.5725870032E+00 -2.0873857649E+01  1.8834144916E+01  2.8484232481E+01  5.1000000000E-04 0. 9.
      12    1    6    0    0    0 -7.2833984305E+00  7.2480527618E+01  2.1832283690E+01  7.6046849951E+01  0.0000000000E+00 0. 9.
</event>
<event>
    14   271  1.000000E+00  1.059949E+03  7.982585E-03  9.212379E-02
       1   -1    0    0  101    0  0.0000000000E+00  0.0000000000E+00  1.1223868628E+03  1.1223868628E+03  0.0000000000E+00 0. 9.
       1   -1    0    0  102    0  0.0000000000E+00  0.0000000000E+00 -1.0858751719E+03  1.0858751719E+03  0.0000000000E+00 0. 9.
 1000001    2    1    2  101    0 -2.6074532893E+02  2.5851983994E+02 -2.9046222686E+02  1.0990266327E+03  9.9431916400E+02 0. 9.
 1000001    2    1    2  102    0  2.6074532893E+02 -2.5851983994E+02  3.2697391783E+02  1.1092354020E+03  9.9431916400E+02 0. 9.
 1000023    2    3    0    0    0  2.2568332054E+02  2.1745677925E+02 -4.2509105358E+02  5.9264334319E+02  2.6889276000E+02 0. 9.
       1    1    3    0  101    0 -4.8642864948E+02  4.1063060687E+01  1.3462882672E+02  5.0638328948E+02  3.3000000000E-01 0. 9.
-1000024    2    4    0    0    0  5.8637132566E+02 -3.2320913099E+02  1.6670543102E+02  7.4058503799E+02  2.6903535800E+02 0. 9.
       2    1    4    0  102    0 -3.2562599672E+02  6.4689291050E+01  1.6026848681E+02  3.6865036401E+02  3.3000000000E-01 0. 9.
 1000022    1    5    0    0    0  1.4154149371E+02  8.8421123114E+01 -2.5002670131E+02  3.2710354226E+02  1.2896157000E+02 0. 9.
      25    1    5    0    0    0  8.4141826837E+01  1.2903565614E+02 -1.7506435227E+02  2.6553980093E+02  1.2701893900E+02 0. 9.
 1000022    1    7    0    0    0  4.2974092186E+02 -2.7149204011E+02  1.8515727944E+02  5.5614700613E+02  1.2896157000E+02 0. 9.
     -24    2    7    0    0    0  1.5663040379E+02 -5.1717090885E+01 -1.8451848419E+01  1.8443803186E+02  8.0431188000E+01 0. 9.
       3    1   12    0  103    0  6.3517219384E+00 -2.3826786531E+01  1.3739634096E+01  2.8232741154E+01  5.0000000000E-01 0. 9.
      -4    1   12    0    0  103  1.5027868186E+02 -2.7890304355E+01 -3.2191482515E+01  1.5620529070E+02  1.5000000000E+00 0. 9.
</event>
<event>
    14   271  1.000000E+00  1.170163E+03  7.991670E-03  9.111066E-02
       2   -1    0    0  101    0  0.0000000000E+00  0.0000000000E+00  1.2751226752E+03  1.2751226752E+03  0.0000000000E+00 0. 9.
       2   -1    0    0  102    0  0.0000000000E+00  0.0000000000E+00 -1.3524165243E+03  1.3524165243E+03  0.0000000000E+00 0. 9.
 1000002    2    1    2  101    0 -2.9214613570E+02 -5.4849586046E+02 -6.3490422620E+02  1.3313095938E+03  9.9150632100E+02 0. 9.
 1000002    2    1    2  102    0  2.9214613570E+02  5.4849586046E+02  5.5761037709E+02  1.2962296057E+03  9.9150632100E+02 0. 9.
 1000023    2    3    0    0    0  8.8579864129E+01 -1.9531482306E+02 -7.2666168477E+02  8.0394949651E+02  2.6889276000E+02 0. 9.
       2    1    3    0  101    0 -3.8072599983E+02 -3.5318103741E+02  9.1757458571E+01  5.2736009731E+02  3.3000000000E-01 0. 9.
 1000024    2    4    0    0    0 -1.1629338249E+02 -1.0633843916E+02  4.0231589307E+02  5.0898930846E+02  2.6903535800E+02 0. 9.
       1    1    4    0  102    0  4.0843951819E+02  6.5483429962E+02  1.5529448401E+02  7.8724029727E+02  3.3000000000E-01 0. 9.
 1000022    1    5    0    0    0  5.3680137452E+01 -8.2732395794E+01 -4.3986010290E+02  4.6886480262E+02  1.2896157000E+02 0. 9.
      25    1    5    0    0    0  3.4899726676E+01 -1.1258242726E+02 -2.8680158187E+02  3.3508469389E+02  1.2701893900E+02 0. 9.
 1000022    1    7    0    0    0 -2.1676115598E+00 -2.8703181834E+01  9.5364057625E+01  1.6295386222E+02  1.2896157000E+02 0. 9.
      24    2    7    0    0    0 -1.1412577093E+02 -7.7635257323E+01  3.0695183545E+02  3.4603544624E+02  8.0431188000E+01 0. 9.
      -3    1   12    0    0  103 -1.0196381295E+02 -7.7799381403E+01  3.0809734733E+02  3.3372681692E+02  5.0000000000E-01 0. 9.
       4    1   12    0  103    0 -1.2161957974E+01  1.6412408048E-01 -1.1455118792E+00  1.2308629328E+01  1.5000000000E+00 0. 9.
</event>
<event>
    22   272  1.000000E+00  1.207642E+03  7.994570E-03  9.079245E-02
       2   -1    0    0  101    0  0.0000000000E+00  0.0000000000E+00  1.9407915188E+03  1.9407915188E+03  0.0000000000E+00 0. 9.
       2   -1    0    0  102    0  0.0000000000E+00  0.0000000000E+00 -7.5149839721E+02  7.5149839721E+02  0.0000000000E+00 0. 9.
 2000002    2    1    2  101    0  6.8152596073E+02  1.0605033973E+02  5.8330959220E+02  1.3411369614E+03  9.9129912700E+02 0. 9.
 2000002    2    1    2  102    0 -6.8152596073E+02 -1.0605033973E+02  6.0598352943E+02  1.3511529546E+03  9.9129912700E+02 0. 9.
 1000021    2    3    0  101  103  7.2288125497E+02  7.0564484133E+01  4.8607096942E+02  1.2296696345E+03  8.6503512500E+02 0. 9.
       2    1    3    0  103    0 -4.1355294233E+01  3.5485855594E+01  9.7238622785E+01  1.1146732691E+02  3.3000000000E-01 0. 9.
 1000021    2    4    0  102  104 -7.0042785084E+02 -1.4909825911E+02  6.4051655249E+02  1.2928173446E+03  8.6503512500E+02 0. 9.
       2    1    4    0  104    0  1.8901890110E+01  4.3047919379E+01 -3.4533023061E+01  5.8335610002E+01  3.3000000000E-01 0. 9.
 1000024    2    5    0    0    0  1.9125234390E+02  8.8647933352E+01  1.3460184439E+02  3.6733308523E+02  2.6903535800E+02 0. 9.
      -6    1    5    0    0  103  5.7374838158E+02 -1.0712665766E+02  4.2227577632E+02  7.4093076425E+02  1.7320000000E+02 0. 9.
       5    1    5    0  101    0 -4.2119470514E+01  8.9043208442E+01 -7.0806651300E+01  1.2140578501E+02  4.8000000000E+00 0. 9.
 1000024    2    7    0    0    0 -1.1003965887E+02  8.6888353151E+01  3.1125492754E+02  4.3464694433E+02  2.6903535800E+02 0. 9.
      -6    1    7    0    0  104 -6.2542344356E+02 -2.8822296946E+02  3.5014377591E+02  7.9172335300E+02  1.7320000000E+02 0. 9.
       5    1    7    0  102    0  3.5035251587E+01  5.2236357205E+01 -2.0882150964E+01  6.6447047313E+01  4.8000000000E+00 0. 9.
 1000022    1    9    0    0    0  1.4058633899E+02  1.0056404909E+02  1.5963518193E+02  2.6831348182E+02  1.2896157000E+02 0. 9.
      24    2    9    0    0    0  5.0666004908E+01 -1.1916115740E+01 -2.5033337534E+01  9.9019603407E+01  8.0431188000E+01 0. 9.
 1000022    1   12    0    0    0 -8.4781656410E+00  1.1190035620E+02  1.8773565156E+02  2.5390811411E+02  1.2896157000E+02 0. 9.
      24    2   12    0    0    0 -1.0156149323E+02 -2.5012003047E+01  1.2351927599E+02  1.8073883022E+02  8.0431188000E+01 0. 9.
      -3    1   16    0    0  105  5.5745891147E+01 -7.3458697996E+00  1.5147287322E+01  5.8234495757E+01  5.0000000000E-01 0. 9.
       4    1   16    0  105    0 -5.0798862388E+00 -4.5702459409E+00 -4.0180624856E+01  4.0785107650E+01  1.5000000000E+00 0. 9.
      -3    1   18    0    0  106 -4.1483386822E+01 -3.4925621668E+01  1.4953479006E+01  5.6254128431E+01  5.0000000000E-01 0. 9.
       4    1   18    0  106    0 -6.0078106409E+01  9.9136186215E+00  1.0856579698E+02  1.2448470178E+02  1.5000000000E+00 0. 9.
</event>
<event>
    10   230  1.000000E+00  3.256477E+02  7.875769E-03  1.062141E-01
       2   -1    0    0  101    0  0.0000000000E+00  0.0000000000E+00  6.7355310789E+02  6.7355310789E+02  0.0000000000E+00 0. 9.
      -1   -1    0    0    0  101  0.0000000000E+00  0.0000000000E+00 -2.4501964963E+02  2.4501964963E+02  0.0000000000E+00 0. 9.
 1000024    2    1    2    0    0 -1.0098644656E+02  1.5331816529E+02  4.8887652808E+02  5.8743936347E+02  2.6903535800E+02 0. 9.
 1000023    2    1    2    0    0  1.0098644656E+02 -1.5331816529E+02 -6.0343069823E+01  3.3113339405E+02  2.6889276000E+02 0. 9.
 1000022    1    3    0    0    0 -1.2081297352E+02  6.9782411589E+01  2.0165630839E+02  2.7705904206E+02  1.2896157000E+02 0. 9.
      24    2    3    0    0    0  1.9826526959E+01  8.3535753705E+01  2.8722021969E+02  3.1038032141E+02  8.0431188000E+01 0. 9.
 1000022    1    4    0    0    0  8.7358583812E+01 -7.3176983385E+01 -5.3307957856E+01  1.8016441927E+02  1.2896157000E+02 0. 9.
      25    1    4    0    0    0  1.3627862749E+01 -8.0141181909E+01 -7.0351119665E+00  1.5096897478E+02  1.2701893900E+02 0. 9.
     -13    1    6    0    0    0 -2.0657408365E+01  2.1577220481E+01  1.6354470822E+02  1.6625037658E+02  1.0566000000E-01 0. 9.
      14    1    6    0    0    0  4.0483935324E+01  6.1958533225E+01  1.2367551148E+02  1.4412994483E+02  0.0000000000E+00 0. 9.
</event>
<event>
    10   230  1.000000E+00  3.659507E+02  7.886203E-03  1.046319E-01
       4   -1    0    0  101    0  0.0000000000E+00  0.0000000000E+00  6.9090165849E+02  6.9090165849E+02  0.0000000000E+00 0. 9.
      -3   -1    0    0    0  101  0.0000000000E+00  0.0000000000E+00 -2.2733680544E+02  2.2733680544E+02  0.0000000000E+00 0. 9.
 1000024    2    1    2    0    0 -2.0300729948E+02  1.4271049026E+02  4.0806277141E+02  5.4815462868E+02  2.6903535800E+02 0. 9.
 1000023    2    1    2    0    0  2.0300729948E+02 -1.4271049026E+02  5.5502081632E+01  3.7008383526E+02  2.6889276000E+02 0. 9.
 1000022    1    3    0    0    0 -1.2586616856E+02  1.7235910027E+02  2.5683733128E+02  3.5797549233E+02  1.2896157000E+02 0. 9.
      24    2    3    0    0    0 -7.7141130920E+01 -2.9648610007E+01  1.5122544013E+02  1.9017913634E+02  8.0431188000E+01 0. 9.
 1000022    1    4    0    0    0  1.5226078486E+02 -7.9441199231E+01  2.3824679019E+01  2.1608552152E+02  1.2896157000E+02 0. 9.
      25    1    4    0    0    0  5.0746514612E+01 -6.3269291032E+01  3.1677402613E+01  1.5399831374E+02  1.2701893900E+02 0. 9.
      -3    1    6    0    0  102 -4.2885479534E+01 -1.3192629978E+01  1.4481789011E+02  1.5161029363E+02  5.0000000000E-01 0. 9.
       4    1    6    0  102    0 -3.4255651387E+01 -1.6455980029E+01  6.4075500207E+00  3.8568842709E+01  1.5000000000E+00 0. 9.
</event>
<event>
    12   226  1.000000E+00  2.849817E+02  7.863876E-03  1.080826E-01
      -2   -1    0    0    0  101  0.0000000000E+00  0.0000000000E+00  1.5386920112E+02  1.5386920112E+02  0.0000000000E+00 0. 9.
       2   -1    0    0  101    0  0.0000000000E+00  0.0000000000E+00 -5.6889112620E+02  5.6889112620E+02  0.0000000000E+00 0. 9.
-1000024    2    1    2    0    0  9.1671653255E+01  2.0757387136E+01 -3.0461574098E+02  4.1713946665E+02  2.6903535800E+02 0. 9.
 1000024    2    1    2    0    0 -9.1671653255E+01 -2.0757387136E+01 -1.1040618410E+02  3.0562086067E+02  2.6903535800E+02 0. 9.
 1000022    1    3    0    0    0  1.3028923906E+02 -9.3036545921E+00 -1.5440732151E+02  2.3986360974E+02  1.2896157000E+02 0. 9.
     -24    2    3    0    0    0 -3.8617585801E+01  3.0061041728E+01 -1.5020841946E+02  1.7727585691E+02  8.0431188000E+01 0. 9.
 1000022    1    4    0    0    0 -1.0258838261E+02  3.0034506105E+01 -1.1405380456E+01  1.6789168248E+02  1.2896157000E+02 0. 9.
      24    2    4    0    0    0  1.0916729359E+01 -5.0791893241E+01 -9.9000803647E+01  1.3772917819E+02  8.0431188000E+01 0. 9.
       3    1    6    0  102    0 -2.7100901453E+01 -2.2863643767E+01 -8.7432415851E+01  9.4349787532E+01  5.0000000000E-01 0. 9.
      -4    1    6    0    0  102 -1.1516684348E+01  5.2924685495E+01 -6.2776003613E+01  8.2926069380E+01  1.5000000000E+00 0. 9.
      -1    1    8    0    0  103  3.7682766925E+01 -5.6527547617E+00 -2.0410430183E+01  4.3227758672E+01  3.3000000000E-01 0. 9.
       2    1    8    0  103    0 -2.6766037566E+01 -4.5139138479E+01 -7.8590373464E+01  9.4501419518E+01  3.3000000000E-01 0. 9.
</event>
<event>
    15   258  1.000000E+00  1.287870E+03  8.000492E-03  9.015007E-02
       2   -1    0    0  101    0  0.0000000000E+00  0.0000000000E+00  1.9133849873E+03  1.9133849873E+03  0.0000000000E+00 0. 9.
      21   -1    0    0  102  101  0.0000000000E+00  0.0000000000E+00 -1.4512586576E+03  1.4512586576E+03  0.0000000000E+00 0. 9.
 1000002    2    1    2  103    0 -1.8735472798E+01 -8.9026488749E+02  1.3041111896E+03  1.8645946925E+03  9.9150632100E+02 0. 9.
 1000021    2    1    2  102  103  1.8735472798E+01  8.9026488749E+02 -8.4198485994E+02  1.5000489524E+03  8.6503512500E+02 0. 9.
 1000024    2    3    0    0    0 -3.0751330653E+02 -6.6082240042E+02  3.7047448374E+02  8.6074505258E+02  2.6903535800E+02 0. 9.
       1    1    3    0  103    0  2.8877783373E+02 -2.2944248707E+02  9.3363670584E+02  1.0038496399E+03  3.3000000000E-01 0. 9.
 1000023    2    4    0    0    0  6.0369096567E+01  6.0244004279E+02 -8.6264912651E+01  6.6807438547E+02  2.6889276000E+02 0. 9.
       4    1    4    0  102    0 -1.1431025352E+01 -1.8446186150E+01 -7.6292948886E+00  2.3051816947E+01  1.5000000000E+00 0. 9.
      -4    1    4    0    0  103 -3.0202598417E+01  3.0627103085E+02 -7.4809065240E+02  8.0892275002E+02  1.5000000000E+00 0. 9.
 1000022    1    5    0    0    0 -2.8289241527E+02 -4.3086233358E+02  2.7110055136E+02  5.9648727111E+02  1.2896157000E+02 0. 9.
      24    2    5    0    0    0 -2.4620891258E+01 -2.2996006684E+02  9.9373932383E+01  2.6425778147E+02  8.0431188000E+01 0. 9.
 1000022    1    7    0    0    0  6.6348782918E+00  3.3498077295E+02 -7.6056812876E+01  3.6697665481E+02  1.2896157000E+02 0. 9.
      25    1    7    0    0    0  5.3734218275E+01  2.6745926984E+02 -1.0208099774E+01  3.0109773065E+02  1.2701893900E+02 0. 9.
      -3    1   11    0    0  104 -5.8777003769E+00 -1.1666654667E+02  9.2864189116E+01  1.4923015142E+02  5.0000000000E-01 0. 9.
       4    1   11    0  104    0 -1.8743190881E+01 -1.1329352017E+02  6.5097432667E+00  1.1502763005E+02  1.5000000000E+00 0. 9.
</event>
<event>
    20   259  1.000000E+00  1.098486E+03  7.985862E-03  9.175545E-02
       2   -1    0    0  101    0  0.0000000000E+00  0.0000000000E+00  2.0924196158E+03  2.0924196158E+03  0.0000000000E+00 0. 9.
      21   -1    0    0  102  101  0.0000000000E+00  0.0000000000E+00 -5.8476517807E+02  5.8476517807E+02  0.0000000000E+00 0. 9.
 2000002    2    1    2  103    0  2.4711639480E+02  5.2926813977E+02  6.2003807095E+02  1.3070242710E+03  9.9129912700E+02 0. 9.
 1000021    2    1    2  102  103 -2.4711639480E+02 -5.2926813977E+02  8.8761636673E+02  1.3701605228E+03  8.6503512500E+02 0. 9.
 1000021    2    3    0  103  104  1.4029056126E+02  4.8124829672E+02  6.4158104692E+02  1.1879366027E+03  8.6503512500E+02 0. 9.
       2    1    3    0  104    0  1.0682583353E+02  4.8019843054E+01 -2.1542975972E+01  1.1908766834E+02  3.3000000000E-01 0. 9.
 1000024    2    4    0    0    0 -2.0947653907E+02  1.0324934834E+02  4.4643637882E+02  5.7116224712E+02  2.6903535800E+02 0. 9.
      -2    1    4    0    0  103 -1.1570992455E+02 -2.6701462359E+02  1.6759792983E+02  3.3581955100E+02  3.3000000000E-01 0. 9.
       1    1    4    0  102    0  7.8070068822E+01 -3.6550286452E+02  2.7358205809E+02  4.6317872471E+02  3.3000000000E-01 0. 9.
 1000024    2    5    0    0    0  1.9490633526E+02  5.7534546031E+02  6.1200020225E+02  9.0329128725E+02  2.6903535800E+02 0. 9.
      -2    1    5    0    0  104  2.1172449276E+01  8.1852368627E+01 -1.9738797779E+01  8.6820572999E+01  3.3000000000E-01 0. 9.
       1    1    5    0  103    0 -7.5788223275E+01 -1.7594953222E+02  4.9319642457E+01  1.9782474240E+02  3.3000000000E-01 0. 9.
 1000022    1    7    0    0    0 -3.5647957708E+01  5.9616041007E+01  1.1643574888E+02  1.8711819630E+02  1.2896157000E+02 0. 9.
      24    2    7    0    0    0 -1.7382858136E+02  4.3633307330E+01  3.3000062994E+02  3.8404405082E+02  8.0431188000E+01 0. 9.
 1000022    1   10    0    0    0  1.0906722433E+02  4.6981720074E+02  5.1793926442E+02  7.1938586982E+02  1.2896157000E+02 0. 9.
      24    2   10    0    0    0  8.5839110930E+01  1.0552825957E+02  9.4060937829E+01  1.8390541743E+02  8.0431188000E+01 0. 9.
     -15    1   14    0    0    0 -4.7719675379E+01  3.0130805204E+01  1.7433977692E+02  1.8325541844E+02  1.7770000000E+00 0. 9.
      16    1   14    0    0    0 -1.2610890598E+02  1.3502502126E+01  1.5566085302E+02  2.0078863238E+02  0.0000000000E+00 0. 9.
      -3    1   16    0    0  105  3.3876847211E+01  2.6753990024E+01 -9.0635417247E+00  4.4111387960E+01  5.0000000000E-01 0. 9.
       4    1   16    0  105    0  5.1962263719E+01  7.8774269548E+01  1.0312447955E+02  1.3979402947E+02  1.5000000000E+00 0. 9.
</event>
<event>
    22   272  1.000000E+00  1.041731E+03  7.980995E-03  9.230367E-02
       1   -1    0    0  101    0  0.0000000000E+00  0.0000000000E+00  9.4677802195E+02  9.4677802195E+02  0.0000000000E+00 0. 9.
       2   -1    0    0  102    0  0.0000000000E+00  0.0000000000E+00 -1.1742415423E+03  1.1742415423E+03  0.0000000000E+00 0. 9.
 2000001    2    1    2  102    0 -3.2988048241E+01 -3.1786599018E+02  5.0110409471E+01  1.0431289183E+03  9.9170554500E+02 0. 9.
 2000002    2    1    2  101    0  3.2988048241E+01  3.1786599018E+02 -2.7757392986E+02  1.0778906460E+03  9.9129912700E+02 0. 9.
 1000021    2    3    0  102  103  4.3771268328E+01 -3.5188252546E+02  1.0805414789E+02  9.4111566878E+02  8.6503512500E+02 0. 9.
       1    1    3    0  103    0 -7.6759316569E+01  3.4016535283E+01 -5.7943738421E+01  1.0201324951E+02  3.3000000000E-01 0. 9.
 1000021    2    4    0  101  104  7.3233964707E+01  1.6727764683E+02 -2.5679316911E+02  9.2063756381E+02  8.6503512500E+02 0. 9.
       2    1    4    0  104    0 -4.0245916466E+01  1.5058834335E+02 -2.0780760755E+01  1.5725308221E+02  3.3000000000E-01 0. 9.
-1000024    2    5    0    0    0  8.1076484892E+01 -7.9694469391E+01  1.8278234307E+01  2.9264094477E+02  2.6903535800E+02 0. 9.
       2    1    5    0  102    0 -5.9199424705E+01 -8.4824596021E+01  3.2839316841E+02  3.4429923894E+02  3.3000000000E-01 0. 9.
      -1    1    5    0    0  103  2.1894208142E+01 -1.8736346005E+02 -2.3861725483E+02  3.0417548506E+02  3.3000000000E-01 0. 9.
 1000024    2    7    0    0    0 -1.5291255432E+02 -2.3739409950E+02 -8.9476566334E+01  4.0015532924E+02  2.6903535800E+02 0. 9.
      -4    1    7    0    0  104  2.1690795229E+02  2.4682553822E+02 -1.5067138542E+02  3.6149138644E+02  1.5000000000E+00 0. 9.
       3    1    7    0  101    0  9.2385667394E+00  1.5784620810E+02 -1.6645217360E+01  1.5899084813E+02  5.0000000000E-01 0. 9.
 1000022    1    9    0    0    0  8.4417927429E+01 -1.1038981938E+02 -3.2916859374E+01  1.9242376377E+02  1.2896157000E+02 0. 9.
     -24    2    9    0    0    0 -3.3414425379E+00  3.0695349986E+01  5.1195093680E+01  1.0021718101E+02  8.0431188000E+01 0. 9.
 1000022    1   12    0    0    0 -7.4754753990E+01 -1.4186412703E+02  3.3205290232E+01  2.0844035506E+02  1.2896157000E+02 0. 9.
      24    2   12    0    0    0 -7.8157800334E+01 -9.5529972467E+01 -1.2268185657E+02  1.9171497418E+02  8.0431188000E+01 0. 9.
      11    1   16    0    0    0 -8.5592959937E+00 -2.3756232508E+01  3.5020919169E+01  4.3175049631E+01  5.1000000000E-04 0. 9.
     -12    1   16    0    0    0  5.2178534558E+00  5.4451582495E+01  1.6174174511E+01  5.7042131377E+01  0.0000000000E+00 0. 9.
      -3    1   18    0    0  105 -7.2106823478E+01 -1.0080886777E+02 -1.3080134130E+02  1.8019728827E+02  5.0000000000E-01 0. 9.
       4    1   18    0  105    0 -6.0509768559E+00  5.2788953056E+00  8.1194847315E+00  1.1517685916E+01  1.5000000000E+00 0. 9.
</event>
<event>
    11   258  1.000000E+00  1.030880E+03  7.980035E-03  9.241265E-02
      21   -1    0    0  101  102  0.0000000000E+00  0.0000000000E+00  8.5813987601E+02  8.5813987601E+02  0.0000000000E+00 0. 9.
       1   -1    0    0  102    0  0.0000000000E+00  0.0000000000E+00 -1.2856137022E+03  1.2856137022E+03  0.0000000000E+00 0. 9.
 1000021    2    1    2  101  103 -4.3976076645E+02 -2.9073577320E+01  1.1472206992E+01  9.7090276734E+02  8.6503512500E+02 0. 9.
 1000001    2    1    2  103    0  4.3976076645E+02  2.9073577320E+01 -4.3894603316E+02  1.1728508109E+03  9.9431916400E+02 0. 9.
 1000022    1    3    0    0    0  4.5483083613E+01 -2.6033971171E+02  1.6189889950E+02  3.3569006031E+02  1.2896157000E+02 0. 9.
       2    1    3    0  101    0 -2.9203107284E+02 -2.7754574611E+01 -5.7012238239E+01  2.9883602213E+02  3.3000000000E-01 0. 9.
      -2    1    3    0    0  103 -1.9321277723E+02  2.5902070901E+02 -9.3414454271E+01  3.3637668490E+02  3.3000000000E-01 0. 9.
 1000023    2    4    0    0    0  1.0827948992E+02  4.4205386925E+02 -8.3780347540E+01  5.3521821182E+02  2.6889276000E+02 0. 9.
       1    1    4    0  103    0  3.3148127653E+02 -4.1298029193E+02 -3.5516568562E+02  6.3763259904E+02  3.3000000000E-01 0. 9.
 1000022    1    8    0    0    0  5.9955984498E+01  1.5205387627E+02 -3.9423945085E+01  2.1189722827E+02  1.2896157000E+02 0. 9.
      25    1    8    0    0    0  4.8323505424E+01  2.8999999297E+02 -4.4356402455E+01  3.2332098355E+02  1.2701893900E+02 0. 9.
</event>
<event>
    16   259  1.000000E+00  1.080993E+03  7.984389E-03  9.192065E-02
       2   -1    0    0  101    0  0.0000000000E+00  0.0000000000E+00  2.2764832613E+03  2.2764832613E+03  0.0000000000E+00 0. 9.
      21   -1    0    0  102  101  0.0000000000E+00  0.0000000000E+00 -5.1263827241E+02  5.1263827241E+02  0.0000000000E+00 0. 9.
 2000002    2    1    2  103    0  5.4705486436E+02 -6.1628307270E+01  9.7463995261E+02  1.4952137203E+03  9.9129912700E+02 0. 9.
 1000021    2    1    2  102  103 -5.4705486436E+02  6.1628307270E+01  7.8920503626E+02  1.2939078134E+03  8.6503512500E+02 0. 9.
 1000021    2    3    0  103  104  4.6971745952E+02 -3.2952095737E+01  6.9960960717E+02  1.2080809999E+03  8.6503512500E+02 0. 9.
       2    1    3    0  104    0  7.7337404833E+01 -2.8676211533E+01  2.7503034544E+02  2.8713272037E+02  3.3000000000E-01 0. 9.
 1000024    2    4    0    0    0 -6.5660800540E+02  2.1682469679E+02  4.6430704527E+02  8.7527600106E+02  2.6903535800E+02 0. 9.
      -2    1    4    0    0  103 -1.0406053326E+00 -2.0537752528E+01 -2.2191706549E+01  3.0256617093E+01  3.3000000000E-01 0. 9.
       1    1    4    0  102    0  1.1059374637E+02 -1.3465863699E+02  3.4708969755E+02  3.8837519527E+02  3.3000000000E-01 0. 9.
 1000022    1    5    0    0    0  5.4440700233E+02  2.4420775536E+01  4.9559709210E+02  7.4781209050E+02  1.2896157000E+02 0. 9.
       4    1    5    0  103    0 -2.1143951420E+02 -1.1392007607E+02  1.9947257184E+02  3.1221148091E+02  1.5000000000E+00 0. 9.
      -4    1    5    0    0  104  1.3674997140E+02  5.6547204800E+01  4.5399432324E+00  1.4805742849E+02  1.5000000000E+00 0. 9.
 1000022    1    7    0    0    0 -4.6068413028E+02  8.8494048435E+01  2.4607771603E+02  5.4520307535E+02  1.2896157000E+02 0. 9.
      24    2    7    0    0    0 -1.9592387512E+02  1.2833064836E+02  2.1822932923E+02  3.3007292571E+02  8.0431188000E+01 0. 9.
     -15    1   14    0    0    0 -4.5528556899E+01 -1.3749063219E+00  6.4223164922E+01  7.8756031530E+01  1.7770000000E+00 0. 9.
      16    1   14    0    0    0 -1.5039531822E+02  1.2970555468E+02  1.5400616431E+02  2.5131689418E+02  0.0000000000E+00 0. 9.
</event>
<event>
    10   230  1.000000E+00  2.944487E+02  7.866786E-03  1.076188E-01
      -1   -1    0    0    0  101  0.0000000000E+00  0.0000000000E+00  3.3545585749E+02  3.3545585749E+02  0.0000000000E+00 0. 9.
       2   -1    0    0  101    0  0.0000000000E+00  0.0000000000E+00 -3.0489036184E+02  3.0489036184E+02  0.0000000000E+00 0. 9.
 1000023    2    1    2    0    0  5.0850167783E+01  1.0850183962E+02  1.4023097233E+02  3.2607733860E+02  2.6889276000E+02 0. 9.
 1000024    2    1    2    0    0 -5.0850167783E+01 -1.0850183962E+02 -1.0966547668E+02  3.1426888073E+02  2.6903535800E+02 0. 9.
 1000022    1    3    0    0    0  4.2199239336E+01  9.3590175934E+01  6.3250940671E+01  1.7655499105E+02  1.2896157000E+02 0. 9.
      25    1    3    0    0    0  8.6509284471E+00  1.4911663688E+01  7.6980031658E+01  1.4952234755E+02  1.2701893900E+02 0. 9.
 1000022    1    4    0    0    0  8.6967274633E-01  1.3735948204E+01 -1.0550721583E+01  1.3012239187E+02  1.2896157000E+02 0. 9.
      24    2    4    0    0    0 -5.1719840529E+01 -1.2223778783E+02 -9.9114755099E+01  1.8414648886E+02  8.0431188000E+01 0. 9.
      -1    1    8    0    0  102 -3.4201312732E+01 -1.3112007075E+02 -8.5064468660E+01  1.5999461077E+02  3.3000000000E-01 0. 9.
       2    1    8    0  102    0 -1.7518527798E+01  8.8822829260E+00 -1.4050286439E+01  2.4151878088E+01  3.3000000000E-01 0. 9.
</event>
<event>
    15   272  1.000000E+00  9.919447E+02  7.976506E-03  9.281560E-02
       2   -1    0    0  101    0  0.0000000000E+00  0.0000000000E+00  9.1274005903E+02  9.1274005903E+02  0.0000000000E+00 0. 9.
       1   -1    0    0  102    0  0.0000000000E+00  0.0000000000E+00 -1.0963304059E+03  1.0963304059E+03  0.0000000000E+00 0. 9.
 2000002    2    1    2  102    0  2.8625197018E+01 -7.6115835412E+00  3.8035377130E+01  9.9247064804E+02  9.9129912700E+02 0. 9.
 2000001    2    1    2  101    0 -2.8625197018E+01  7.6115835412E+00 -2.2162572395E+02  1.0165998168E+03  9.9170554500E+02 0. 9.
 1000022    1    3    0    0    0  2.6465055612E+02  3.1888476796E+02 -2.4661978581E+02  4.9917914358E+02  1.2896157000E+02 0. 9.
       2    1    3    0  102    0 -2.3602535911E+02 -3.2649635150E+02  2.8465516294E+02  4.9329150446E+02  3.3000000000E-01 0. 9.
 1000021    2    4    0  101  103  1.7682387796E+01 -2.3820664166E+01 -3.0368295769E+02  9.1727269509E+02  8.6503512500E+02 0. 9.
       1    1    4    0  103    0 -4.6307584814E+01  3.1432247707E+01  8.2057233740E+01  9.9327121756E+01  3.3000000000E-01 0. 9.
 1000024    2    7    0    0    0  2.8396931315E+01 -2.3023358147E+02 -3.9477519990E+01  3.5742465805E+02  2.6903535800E+02 0. 9.
      -2    1    7    0    0  103 -2.4855434633E+01 -1.1372374325E+02  3.4868263842E+01  1.2151866990E+02  3.3000000000E-01 0. 9.
       1    1    7    0  101    0  1.4140891113E+01  3.2013666056E+02 -2.9907370154E+02  4.3832936714E+02  3.3000000000E-01 0. 9.
 1000022    1    9    0    0    0  2.8060741337E+01 -1.6964509480E+02  5.2265514120E+01  2.2120043828E+02  1.2896157000E+02 0. 9.
      24    2    9    0    0    0  3.3618997887E-01 -6.0588486674E+01 -9.1743034110E+01  1.3622421977E+02  8.0431188000E+01 0. 9.
     -13    1   13    0    0    0 -2.5024521032E+00 -7.7307329896E+01 -5.2523789572E+01  9.3495695928E+01  1.0566000000E-01 0. 9.
      14    1   13    0    0    0  2.8386420821E+00  1.6718843222E+01 -3.9219244538E+01  4.2728523842E+01  0.0000000000E+00 0. 9.
</event>
<event>
    20   258  1.000000E+00  9.919929E+02  7.976511E-03  9.281509E-02
      21   -1    0    0  101  102  0.0000000000E+00  0.0000000000E+00  2.1613021585E+03  2.1613021585E+03  0.0000000000E+00 0. 9.
       2   -1    0    0  102    0  0.0000000000E+00  0.0000000000E+00 -9.6726249738E+02  9.6726249738E+02  0.0000000000E+00 0. 9.
 1000021    2    1    2  101  103  3.3679215972E+02 -7.0254042234E+01  1.7191507975E+03  1.9550268084E+03  8.6503512500E+02 0. 9.
 1000002    2    1    2  103    0 -3.3679215972E+02  7.0254042234E+01 -5.2511113644E+02  1.1735378475E+03  9.9150632100E+02 0. 9.
-1000024    2    3    0    0    0 -1.1190296996E+02  4.2660497548E+01  6.1403250241E+02  6.8099789325E+02  2.6903535800E+02 0. 9.
       2    1    3    0  101    0 -3.6919363843E+01 -1.3948847356E+02  3.1056384116E+02  3.4244719596E+02  3.3000000000E-01 0. 9.
      -1    1    3    0    0  103  4.8561449352E+02  2.6573933775E+01  7.9455445397E+02  9.3158171917E+02  3.3000000000E-01 0. 9.
 1000021    2    4    0  103  104 -2.5665871138E+02  1.7335918392E+02 -4.5424469378E+02  1.0249639555E+03  8.6503512500E+02 0. 9.
       2    1    4    0  104    0 -8.0133448333E+01 -1.0310514169E+02 -7.0866442655E+01  1.4857389198E+02  3.3000000000E-01 0. 9.
 1000022    1    5    0    0    0 -7.7556102852E+01 -5.5010628681E+01  3.8652186122E+02  4.1841528903E+02  1.2896157000E+02 0. 9.
     -24    2    5    0    0    0 -3.4346867107E+01  9.7671126229E+01  2.2751064119E+02  2.6258260422E+02  8.0431188000E+01 0. 9.
 1000024    2    8    0    0    0 -2.4821880074E+02 -1.5413916747E+02 -6.9175305122E+01  4.0315840892E+02  2.6903535800E+02 0. 9.
      -2    1    8    0    0  104  1.3713001087E+02  8.7618664692E+00 -1.2007228922E+02  1.8247978991E+02  3.3000000000E-01 0. 9.
       1    1    8    0  103    0 -1.4556992152E+02  3.1873648492E+02 -2.6499709944E+02  4.3932575668E+02  3.3000000000E-01 0. 9.
       3    1   11    0  105    0  6.3693260869E+00 -2.2013085509E+00  7.7632859694E+01  7.7926407452E+01  5.0000000000E-01 0. 9.
      -4    1   11    0    0  105 -4.0716193194E+01  9.9872434780E+01  1.4987778150E+02  1.8465619677E+02  1.5000000000E+00 0. 9.
 1000022    1   12    0    0    0 -2.4967649241E+02 -1.1484096969E+02 -7.7294673487E+01  3.1326083743E+02  1.2896157000E+02 0. 9.
      24    2   12    0    0    0  1.4576916703E+00 -3.9298197779E+01  8.1193683649E+00  8.9897571488E+01  8.0431188000E+01 0. 9.
     -15    1   18    0    0    0 -1.2842640699E+01  2.2491962259E+01  4.6916828286E+00  2.6381648984E+01  1.7770000000E+00 0. 9.
      16    1   18    0    0    0  1.4300332369E+01 -6.1790160038E+01  3.4276855364E+00  6.3515922504E+01  0.0000000000E+00 0. 9.
</event>
<event>
    20   259  1.000000E+00  1.087011E+03  7.984898E-03  9.186345E-02
      21   -1    0    0  101  102  0.0000000000E+00  0.0000000000E+00  5.3504618757E+02  5.3504618757E+02  0.0000000000E+00 0. 9.
       2   -1    0    0  102    0  0.0000000000E+00  0.0000000000E+00 -2.5292519521E+03  2.5292519521E+03  0.0000000000E+00 0. 9.
 1000021    2    1    2  101  103 -2.0745488101E+02  5.2256726210E+02 -4.0420245442E+02  1.1080521029E+03  8.6503512500E+02 0. 9.
 2000002    2    1    2  103    0  2.0745488101E+02 -5.2256726210E+02 -1.5900033101E+03  1.9562460367E+03  9.9129912700E+02 0. 9.
 1000024    2    3    0    0    0  8.4095541413E+01  1.4511756239E+02 -3.2639546423E+02  4.5502218619E+02  2.6903535800E+02 0. 9.
      -6    1    3    0    0  103  1.0126764569E+01  2.4744363757E+02 -1.1294562547E+02  3.2262340189E+02  1.7320000000E+02 0. 9.
       5    1    3    0  101    0 -3.0167718699E+02  1.3000606214E+02  3.5138635275E+01  3.3040651481E+02  4.8000000000E+00 0. 9.
 1000021    2    4    0  103  104  2.9875954860E+02 -4.5201776780E+02 -1.4713851904E+03  1.7907644949E+03  8.6503512500E+02 0. 9.
       2    1    4    0  104    0 -9.1304667593E+01 -7.0549494301E+01 -1.1861811971E+02  1.6548154185E+02  3.3000000000E-01 0. 9.
 1000022    1    5    0    0    0  7.9191585417E+01  1.1917369212E+01 -1.0583738703E+02  1.8505666678E+02  1.2896157000E+02 0. 9.
      24    2    5    0    0    0  4.9039559951E+00  1.3320019318E+02 -2.2055807720E+02  2.6996551941E+02  8.0431188000E+01 0. 9.
 1000023    2    8    0    0    0 -1.4277845285E+02 -3.3443317063E+02 -1.0635718836E+03  1.1557334036E+03  2.6889276000E+02 0. 9.
       5    1    8    0  103    0  7.7329126826E+01 -8.2910289362E+01 -5.2580623786E+01  1.2506666996E+02  4.8000000000E+00 0. 9.
      -5    1    8    0    0  104  3.6420887463E+02 -3.4674307803E+01 -3.5523268298E+02  5.0996442134E+02  4.8000000000E+00 0. 9.
      -1    1   11    0    0  105 -6.1129542026E+00  9.5289439556E+01 -8.1905880055E+01  1.2580193793E+02  3.3000000000E-01 0. 9.
       2    1   11    0  105    0  1.1016910198E+01  3.7910753626E+01 -1.3865219714E+02  1.4416358148E+02  3.3000000000E-01 0. 9.
 1000022    1   12    0    0    0 -9.8894120214E+01 -2.4638323369E+02 -5.4162939309E+02  6.1682917477E+02  1.2896157000E+02 0. 9.
      23    2   12    0    0    0 -4.3884332639E+01 -8.8049936945E+01 -5.2194249052E+02  5.3890422883E+02  9.1187600000E+01 0. 9.
       2    1   18    0  106    0 -5.5160274698E+01 -5.3377686641E+01 -4.6497090785E+02  4.7126413759E+02  3.3000000000E-01 0. 9.
      -2    1   18    0    0  106  1.1275942058E+01 -3.4672250305E+01 -5.6971582672E+01  6.7640091237E+01  3.3000000000E-01 0. 9.
</event>
<event>
    12   230  1.000000E+00  2.739732E+02  7.860370E-03  1.086471E-01
       2   -1    0    0  101    0  0.0000000000E+00  0.0000000000E+00  4.3832726127E+02  4.3832726127E+02  0.0000000000E+00 0. 9.
      -1   -1    0    0    0  101  0.0000000000E+00  0.0000000000E+00 -1.7124490562E+02  1.7124490562E+02  0.0000000000E+00 0. 9.
 1000024    2    1    2    0    0  2.4788913500E+01  4.5881931444E+01  1.3351038598E+02  3.0483551119E+02  2.6903535800E+02 0. 9.
 1000023    2    1    2    0    0 -2.4788913500E+01 -4.5881931444E+01  1.3357196967E+02  3.0473665570E+02  2.6889276000E+02 0. 9.
 1000022    1    3    0    0    0  3.3974383736E+01 -4.9315627724E+01  3.6947412389E+01  1.4690979446E+02  1.2896157000E+02 0. 9.
      24    2    3    0    0    0 -9.1854702364E+00  9.5197559167E+01  9.6562973593E+01  1.5792571674E+02  8.0431188000E+01 0. 9.
 1000022    1    4    0    0    0 -6.9590430362E+00  4.0811154079E+01  1.1218690556E+02  1.7587201851E+02  1.2896157000E+02 0. 9.
      23    2    4    0    0    0 -1.7829870463E+01 -8.6693085523E+01  2.1385064106E+01  1.2886463719E+02  9.1187600000E+01 0. 9.
     -11    1    6    0    0    0 -3.9715581003E+01  2.5271581012E+01  4.9341394640E+01  6.8194966138E+01  5.1000000000E-04 0. 9.
      12    1    6    0    0    0  3.0530110767E+01  6.9925978155E+01  4.7221578953E+01  8.9730750600E+01  0.0000000000E+00 0. 9.
      14    1    8    0    0    0 -4.3485916340E+01 -6.6499366941E+01 -1.4042033265E+01  8.0686860280E+01  0.0000000000E+00 0. 9.
     -14    1    8    0    0    0  2.5656045877E+01 -2.0193718582E+01  3.5427097371E+01  4.8177776913E+01  0.0000000000E+00 0. 9.
</event>
<event>
    10   230  1.000000E+00  2.925980E+02  7.866225E-03  1.077080E-01
      -2   -1    0    0    0  101  0.0000000000E+00  0.0000000000E+00  3.0543621899E+02  3.0543621899E+02  0.0000000000E+00 0. 9.
       1   -1    0    0  101    0  0.0000000000E+00  0.0000000000E+00 -3.1179698107E+02  3.1179698107E+02  0.0000000000E+00 0. 9.
-1000024    2    1    2    0    0 -8.0933918247E+01 -8.1985353985E+01 -1.0127051704E+02  3.0968958469E+02  2.6903535800E+02 0. 9.
 1000023    2    1    2    0    0  8.0933918247E+01  8.1985353985E+01  9.4909754958E+01  3.0754361537E+02  2.6889276000E+02 0. 9.
 1000022    1    3    0    0    0 -1.8690876613E+01 -1.2639306984E+02 -5.7998496533E+01  1.9057667514E+02  1.2896157000E+02 0. 9.
     -24    2    3    0    0    0 -6.2243041634E+01  4.4407715854E+01 -4.3272020503E+01  1.1911290955E+02  8.0431188000E+01 0. 9.
 1000022    1    4    0    0    0  2.8497491519E+01  1.3705821394E+00  2.9580158102E+01  1.3535160807E+02  1.2896157000E+02 0. 9.
      25    1    4    0    0    0  5.2436426729E+01  8.0614771845E+01  6.5329596855E+01  1.7219200730E+02  1.2701893900E+02 0. 9.
       3    1    6    0  102    0 -6.3565933505E+01  2.5632802934E+01 -6.2070153939E+01  9.2469576070E+01  5.0000000000E-01 0. 9.
      -4    1    6    0    0  102  1.3228918708E+00  1.8774912920E+01  1.8798133436E+01  2.6643333476E+01  1.5000000000E+00 0. 9.
</event>
<event>
    12   226  1.000000E+00  4.021219E+02  7.894651E-03  1.033877E-01
      -1   -1    0    0    0  101  0.0000000000E+00  0.0000000000E+00  9.6362699696E+01  9.6362699696E+01  0.0000000000E+00 0. 9.
       1   -1    0    0  101    0  0.0000000000E+00  0.0000000000E+00 -1.6842401160E+03  1.6842401160E+03  0.0000000000E+00 0. 9.
 1000024    2    1    2    0    0 -2.7752574278E+02  1.1091183037E+02 -7.3999041525E+02  8.4219226459E+02  2.6903535800E+02 0. 9.
-1000024    2    1    2    0    0  2.7752574278E+02 -1.1091183037E+02 -8.4788700110E+02  9.3841055115E+02  2.6903535800E+02 0. 9.
 1000022    1    3    0    0    0 -1.9781004777E+02  6.2487702805E+01 -3.0863655186E+02  3.9360022317E+02  1.2896157000E+02 0. 9.
      24    2    3    0    0    0 -7.9715695014E+01  4.8424127564E+01 -4.3135386339E+02  4.4859204142E+02  8.0431188000E+01 0. 9.
 1000022    1    4    0    0    0  1.7121208960E+02 -1.4648508340E+02 -4.8383266176E+02  5.4908705176E+02  1.2896157000E+02 0. 9.
     -24    2    4    0    0    0  1.0631365318E+02  3.5573253035E+01 -3.6405433934E+02  3.8932349939E+02  8.0431188000E+01 0. 9.
      -1    1    6    0    0  102 -1.7437558949E+01  5.5933149093E+01 -1.6991031977E+02  1.7972815943E+02  3.3000000000E-01 0. 9.
       2    1    6    0  102    0 -6.2278136064E+01 -7.5090215297E+00 -2.6144354362E+02  2.6886388198E+02  3.3000000000E-01 0. 9.
       3    1    8    0  103    0  4.9476528929E+01 -1.2540523990E+01 -2.3352658905E+02  2.3903997458E+02  5.0000000000E-01 0. 9.
      -4    1    8    0    0  103  5.6837124247E+01  4.8113777024E+01 -1.3052775029E+02  1.5028352481E+02  1.5000000000E+00 0. 9.
</event>
<event>
    12   226  1.000000E+00  2.748572E+02  7.860657E-03  1.086007E-01
       2   -1    0    0  101    0  0.0000000000E+00  0.0000000000E+00  8.8690068262E+02  8.8690068262E+02  0.0000000000E+00 0. 9.
      -2   -1    0    0    0  101  0.0000000000E+00  0.0000000000E+00 -8.9038568896E+01  8.9038568896E+01  0.0000000000E+00 0. 9.
 1000024    2    1    2    0    0  4.1330400910E+01  3.8187109314E+01  2.9735321103E+02  4.0492642951E+02  2.6903535800E+02 0. 9.
-1000024    2    1    2    0    0 -4.1330400910E+01 -3.8187109314E+01  5.0050890270E+02  5.7101282200E+02  2.6903535800E+02 0. 9.
 1000022    1    3    0    0    0 -2.0086604721E+01 -4.0927321089E+01  2.0609766086E+02  2.4735773618E+02  1.2896157000E+02 0. 9.
      24    2    3    0    0    0  6.1417005631E+01  7.9114430404E+01  9.1255550166E+01  1.5756869333E+02  8.0431188000E+01 0. 9.
 1000022    1    4    0    0    0 -7.5432867704E+00 -9.4288303820E+00  4.4549218524E+02  4.6393984272E+02  1.2896157000E+02 0. 9.
     -24    2    4    0    0    0 -3.3787114140E+01 -2.8758278932E+01  5.5016717457E+01  1.0707297928E+02  8.0431188000E+01 0. 9.
     -15    1    6    0    0    0  6.8250061614E+00  1.2845180861E+01  6.6665482074E+01  6.8257040733E+01  1.7770000000E+00 0. 9.
      16    1    6    0    0    0  5.4591999470E+01  6.6269249543E+01  2.4590068092E+01  8.9311652598E+01  0.0000000000E+00 0. 9.
      13    1    8    0    0    0 -3.6751746112E+01 -5.2479339873E+01  5.2878816744E+01  8.3071971086E+01  1.0566000000E-01 0. 9.
     -14    1    8    0    0    0  2.9646319721E+00  2.3721060941E+01  2.1379007126E+00  2.4001008194E+01  0.0000000000E+00 0. 9.
</event>
<event>
    10   230  1.000000E+00  2.872552E+02  7.864583E-03  1.079695E-01
      -1   -1    0    0    0  101  0.0000000000E+00  0.0000000000E+00  2.2792958664E+02  2.2792958664E+02  0.0000000000E+00 0. 9.
       2   -1    0    0  101    0  0.0000000000E+00  0.0000000000E+00 -3.6709755487E+02  3.6709755487E+02  0.0000000000E+00 0. 9.
 1000023    2    1    2    0    0  5.3383708568E+01  8.5580591458E+01 -1.0455111331E+02  3.0562740330E+02  2.6889276000E+02 0. 9.
 1000024    2    1    2    0    0 -5.3383708568E+01 -8.5580591458E+01 -3.4616854923E+01  2.8939973821E+02  2.6903535800E+02 0. 9.
 1000022    1    3    0    0    0  3.3809993184E+01  8.8825654037E+00 -2.4308663508E+01  1.3580873781E+02  1.2896157000E+02 0. 9.
      25    1    3    0    0    0  1.9573715385E+01  7.6698026054E+01 -8.0242449805E+01  1.6981866549E+02  1.2701893900E+02 0. 9.
 1000022    1    4    0    0    0 -2.3193826823E+01  6.8956865897E+00  4.6671843817E+01  1.3926540000E+02  1.2896157000E+02 0. 9.
      24    2    4    0    0    0 -3.0189881745E+01 -9.2476278048E+01 -8.1288698740E+01  1.5013433820E+02  8.0431188000E+01 0. 9.
     -11    1    8    0    0    0 -8.2919750891E+00 -7.5220017215E+01 -9.2995943853E+01  1.1989601083E+02  5.1000000000E-04 0. 9.
      12    1    8    0    0    0 -2.1897906656E+01 -1.7256260833E+01  1.1707245113E+01  3.0238327367E+01  0.0000000000E+00 0. 9.
</event>
<event>
    10   230  1.000000E+00  4.060186E+02  7.895516E-03  1.032621E-01
      -1   -1    0    0    0  101  0.0000000000E+00  0.0000000000E+00  2.0650564137E+02  2.0650564137E+02  0.0000000000E+00 0. 9.
       2   -1    0    0  101    0  0.0000000000E+00  0.0000000000E+00 -1.0494531035E+03  1.0494531035E+03  0.0000000000E+00 0. 9.
 1000023    2    1    2    0    0  2.6392900111E+02  1.5116510311E+02 -7.2865191593E+02  8.3411410311E+02  2.6889276000E+02 0. 9.
 1000024    2    1    2    0    0 -2.6392900111E+02 -1.5116510311E+02 -1.1429554616E+02  4.2184464172E+02  2.6903535800E+02 0. 9.
 1000022    1    3    0    0    0  1.1953547661E+02  1.0854265325E+02 -4.1775849893E+02  4.6607240608E+02  1.2896157000E+02 0. 9.
      25    1    3    0    0    0  1.4439352450E+02  4.2622449862E+01 -3.1089341700E+02  3.6804169703E+02  1.2701893900E+02 0. 9.
 1000022    1    4    0    0    0 -1.8539557016E+02 -1.4803436063E+02 -1.2759882341E+01  2.7033237042E+02  1.2896157000E+02 0. 9.
      24    2    4    0    0    0 -7.8533430950E+01 -3.1307424787E+00 -1.0153566382E+02  1.5151227130E+02  8.0431188000E+01 0. 9.
      -3    1    8    0    0  102 -8.3920404502E+01 -9.7694047935E+00 -1.1045707937E+02  1.3906506371E+02  5.0000000000E-01 0. 9.
       4    1    8    0  102    0  5.3869735527E+00  6.6386623148E+00  8.9214155517E+00  1.2447207592E+01  1.5000000000E+00 0. 9.
</event>
<event>
    10   230  1.000000E+00  2.827053E+02  7.863162E-03  1.081971E-01
      -1   -1    0    0    0  101  0.0000000000E+00  0.0000000000E+00  5.0992148672E+02  5.0992148672E+02  0.0000000000E+00 0. 9.
       2   -1    0    0  101    0  0.0000000000E+00  0.0000000000E+00 -3.5818224812E+02  3.5818224812E+02  0.0000000000E+00 0. 9.
 1000023    2    1    2    0    0  3.3828776270E+01  8.0226161965E+01 -2.4965319547E+02  3.7710828360E+02  2.6889276000E+02 0. 9.
 1000024    2    1    2    0    0 -3.3828776270E+01 -8.0226161965E+01  4.0139243407E+02  4.9099545125E+02  2.6903535800E+02 0. 9.
 1000022    1    3    0    0    0  2.8052420065E+01  1.0568957394E+01 -8.3211545395E+01  1.5637739273E+02  1.2896157000E+02 0. 9.
      25    1    3    0    0    0  5.7763562046E+00  6.9657204571E+01 -1.6644165008E+02  2.2073089087E+02  1.2701893900E+02 0. 9.
 1000022    1    4    0    0    0 -9.8615904862E+01 -6.9748483373E+01  2.8200186057E+02  3.3278534151E+02  1.2896157000E+02 0. 9.
      24    2    4    0    0    0  6.4787128592E+01 -1.0477678592E+01  1.1939057350E+02  1.5821010974E+02  8.0431188000E+01 0. 9.
      -3    1    8    0    0  102 -8.9028735222E+00  2.1162797272E+01  3.4264721113E+01  4.1248590985E+01  5.0000000000E-01 0. 9.
       4    1    8    0  102    0  7.3690002114E+01 -3.1640475865E+01  8.5125852388E+01  1.1696151875E+02  1.5000000000E+00 0. 9.
</event>
<event>
    15   272  1.000000E+00  1.017230E+03  7.978813E-03  9.255176E-02
       2   -1    0    0  101    0  0.0000000000E+00  0.0000000000E+00  1.6238844308E+03  1.6238844308E+03  0.0000000000E+00 0. 9.
       2   -1    0    0  102    0  0.0000000000E+00  0.0000000000E+00 -1.1603876344E+03  1.1603876344E+03  0.0000000000E+00 0. 9.
 2000002    2    1    2  102    0  2.1403217102E+02  7.9206388483E+01  1.1665171939E+03  1.5477466669E+03  9.9129912700E+02 0. 9.
 2000002    2    1    2  101    0 -2.1403217102E+02 -7.9206388483E+01 -7.0302039747E+02  1.2365253983E+03  9.9129912700E+02 0. 9.
 1000022    1    3    0    0    0  4.6543354157E+02 -2.4689659228E+02  9.1952956822E+02  1.0675916927E+03  1.2896157000E+02 0. 9.
       2    1    3    0  102    0 -2.5140137054E+02  3.2610298077E+02  2.4698762563E+02  4.8015497424E+02  3.3000000000E-01 0. 9.
 1000021    2    4    0  101  103 -1.5104614201E+02 -1.8032431860E+02 -6.4240029080E+02  1.1028579682E+03  8.6503512500E+02 0. 9.
       2    1    4    0  103    0 -6.2986029016E+01  1.0111793012E+02 -6.0620106679E+01  1.3366743012E+02  3.3000000000E-01 0. 9.
 1000024    2    7    0    0    0 -2.2985316693E+02 -1.7110874080E+02 -6.6152445633E+02  7.6948379431E+02  2.6903535800E+02 0. 9.
      -6    1    7    0    0  103  1.5209594292E+02  4.9576276402E+01 -6.5175586580E+00  2.3586373525E+02  1.7320000000E+02 0. 9.
       5    1    7    0  101    0 -7.3288917995E+01 -5.8791854204E+01  2.5641724196E+01  9.7510438628E+01  4.8000000000E+00 0. 9.
 1000022    1    9    0    0    0 -1.9616602721E+02 -4.8803243666E+01 -3.5885386286E+02  4.3159013920E+02  1.2896157000E+02 0. 9.
      24    2    9    0    0    0 -3.3687139721E+01 -1.2230549713E+02 -3.0267059347E+02  3.3789365511E+02  8.0431188000E+01 0. 9.
      -1    1   13    0    0  104  8.9154406212E+00 -9.9516615932E+01 -1.7697971931E+02  2.0323624646E+02  3.3000000000E-01 0. 9.
       2    1   13    0  104    0 -4.2602580342E+01 -2.2788881199E+01 -1.2569087416E+02  1.3465740865E+02  3.3000000000E-01 0. 9.
</event>
<event>
    16   271  1.000000E+00  1.082465E+03  7.984514E-03  9.190663E-02
       1   -1    0    0  101    0  0.0000000000E+00  0.0000000000E+00  1.5055312984E+03  1.5055312984E+03  0.0000000000E+00 0. 9.
       1   -1    0    0  102    0  0.0000000000E+00  0.0000000000E+00 -1.2893139445E+03  1.2893139445E+03  0.0000000000E+00 0. 9.
 1000001    2    1    2  101    0  4.2461789000E+02  5.2527441399E+01 -7.7166677538E+02  1.3293606346E+03  9.9431916400E+02 0. 9.
 1000001    2    1    2  102    0 -4.2461789000E+02 -5.2527441399E+01  9.8788412928E+02  1.4654846084E+03  9.9431916400E+02 0. 9.
-1000024    2    3    0    0    0  1.9407930149E+02  4.6917529312E+02 -2.6091645615E+02  6.3107024323E+02  2.6903535800E+02 0. 9.
       2    1    3    0  101    0  2.3053858851E+02 -4.1664785172E+02 -5.1075031923E+02  6.9829039134E+02  3.3000000000E-01 0. 9.
-1000024    2    4    0    0    0 -5.3138069851E+01  2.5118774219E+02  5.2151310872E+00  3.7192224690E+02  2.6903535800E+02 0. 9.
       2    1    4    0  102    0 -3.7147982015E+02 -3.0371518359E+02  9.8266899819E+02  1.0935623615E+03  3.3000000000E-01 0. 9.
 1000022    1    5    0    0    0  1.9913908211E+02  3.9975007760E+02 -1.8464616073E+02  5.0018175674E+02  1.2896157000E+02 0. 9.
     -24    2    5    0    0    0 -5.0597806133E+00  6.9425215527E+01 -7.6270295412E+01  1.3088848649E+02  8.0431188000E+01 0. 9.
 1000022    1    7    0    0    0 -1.1589585178E+01  1.2914088393E+02  8.3443316184E+01  2.0101134281E+02  1.2896157000E+02 0. 9.
     -24    2    7    0    0    0 -4.1548484673E+01  1.2204685826E+02 -7.8228185097E+01  1.7091090409E+02  8.0431188000E+01 0. 9.
       1    1   10    0  103    0  3.3831598968E+01  2.0124603818E+01 -4.7848546792E+01  6.1961028862E+01  3.3000000000E-01 0. 9.
      -2    1   10    0    0  103 -3.8891379582E+01  4.9300611709E+01 -2.8421748620E+01  6.8927457630E+01  3.3000000000E-01 0. 9.
      15    1   12    0    0    0 -4.7552947178E+01  2.4818347024E+01 -3.6682908212E+01  6.5007896584E+01  1.7770000000E+00 0. 9.
     -16    1   12    0    0    0  6.0044625055E+00  9.7228511237E+01 -4.1545276885E+01  1.0590300751E+02  0.0000000000E+00 0. 9.
</event>
<event>
    17   258  1.000000E+00  1.099700E+03  7.985964E-03  9.174410E-02
      -3   -1    0    0    0  101  0.0000000000E+00  0.0000000000E+00  1.4308180627E+03  1.4308180627E+03  0.0000000000E+00 0. 9.
      21   -1    0    0  101  102  0.0000000000E+00  0.0000000000E+00 -8.4313608665E+02  8.4313608665E+02  0.0000000000E+00 0. 9.
-1000003    2    1    2    0  103 -5.7202981163E+02  1.1680609869E+02  3.1396760301E+02  1.1950347383E+03  9.9431916400E+02 0. 9.
 1000021    2    1    2  103  102  5.7202981163E+02 -1.1680609869E+02  2.7371437306E+02  1.0789194111E+03  8.6503512500E+02 0. 9.
 1000024    2    3    0    0    0 -4.4821649548E+02  4.1108746712E+01 -2.7244778287E+02  5.9092789249E+02  2.6903535800E+02 0. 9.
      -4    1    3    0    0  103 -1.2381331616E+02  7.5697351975E+01  5.8641538588E+02  6.0410684580E+02  1.5000000000E+00 0. 9.
 1000024    2    4    0    0    0  7.2018458607E+01  2.1396972944E+02  2.8903673457E+02  4.5485378011E+02  2.6903535800E+02 0. 9.
      -4    1    4    0    0  102  4.5066062456E+02 -2.3532405091E+02  2.5681223702E+01  5.0905223967E+02  1.5000000000E+00 0. 9.
       3    1    4    0  103    0  4.9350728467E+01 -9.5451777219E+01 -4.1003585218E+01  1.1501339129E+02  5.0000000000E-01 0. 9.
 1000022    1    5    0    0    0 -2.2523682017E+02 -4.3710186009E+01 -8.3416696113E+01  2.7610077372E+02  1.2896157000E+02 0. 9.
      24    2    5    0    0    0 -2.2297967531E+02  8.4818932721E+01 -1.8903108676E+02  3.1482711877E+02  8.0431188000E+01 0. 9.
 1000022    1    7    0    0    0  5.0846633807E+01  1.3662877749E+02  6.7694428675E+01  2.0607383438E+02  1.2896157000E+02 0. 9.
      24    2    7    0    0    0  2.1171824800E+01  7.7340951956E+01  2.2134230590E+02  2.4877994573E+02  8.0431188000E+01 0. 9.
      -3    1   11    0    0  104 -6.0642782079E+01  6.3831944517E+01 -6.4295513326E+01  1.0902397531E+02  5.0000000000E-01 0. 9.
       4    1   11    0  104    0 -1.6233689323E+02  2.0986988204E+01 -1.2473557343E+02  2.0580314346E+02  1.5000000000E+00 0. 9.
      -1    1   13    0    0  105  2.1895418016E+01  9.1241699391E+01  1.5662131047E+02  1.8257820470E+02  3.3000000000E-01 0. 9.
       2    1   13    0  105    0 -7.2359321634E-01 -1.3900747436E+01  6.4720995432E+01  6.6201741036E+01  3.3000000000E-01 0. 9.
</event>
<event>
    12   226  1.000000E+00  3.023542E+02  7.869148E-03  1.072457E-01
       1   -1    0    0  101    0  0.0000000000E+00  0.0000000000E+00  3.7263662733E+02  3.7263662733E+02  0.0000000000E+00 0. 9.
      -1   -1    0    0    0  101  0.0000000000E+00  0.0000000000E+00 -4.0300361310E+02  4.0300361310E+02  0.0000000000E+00 0. 9.
-1000024    2    1    2    0    0 -4.0596272102E+01  1.3187096614E+02  2.2739860249E+02  3.7832282153E+02  2.6903535800E+02 0. 9.
 1000024    2    1    2    0    0  4.0596272102E+01 -1.3187096614E+02 -2.5776558826E+02  3.9731741891E+02  2.6903535800E+02 0. 9.
 1000022    1    3    0    0    0 -8.0456452609E+01  2.0030320450E+01  1.5366704740E+02  2.1706934951E+02  1.2896157000E+02 0. 9.
     -24    2    3    0    0    0  3.9860180507E+01  1.1184064569E+02  7.3731555098E+01  1.6125347202E+02  8.0431188000E+01 0. 9.
 1000022    1    4    0    0    0  6.6365022380E+01 -1.4482262830E+01 -1.8472287188E+02  2.3530337453E+02  1.2896157000E+02 0. 9.
      24    2    4    0    0    0 -2.5768750278E+01 -1.1738870331E+02 -7.3042716384E+01  1.6201404438E+02  8.0431188000E+01 0. 9.
      11    1    6    0    0    0  4.0892004765E+01  1.0719824512E+01  2.2599544704E+01  4.7935478639E+01  5.1000000000E-04 0. 9.
     -12    1    6    0    0    0 -1.0318242582E+00  1.0112082118E+02  5.1132010394E+01  1.1331799338E+02  0.0000000000E+00 0. 9.
      -3    1    8    0    0  102 -5.0354019684E+01 -9.8563704076E+01 -4.2695303048E+01  1.1863165666E+02  5.0000000000E-01 0. 9.
       4    1    8    0  102    0  2.4585269406E+01 -1.8824999234E+01 -3.0347413336E+01  4.3382387718E+01  1.5000000000E+00 0. 9.
</event>
<event>
    10   230  1.000000E+00  3.017769E+02  7.868977E-03  1.072725E-01
       2   -1    0    0  101    0  0.0000000000E+00  0.0000000000E+00  4.1088291608E+02  4.1088291608E+02  0.0000000000E+00 0. 9.
      -1   -1    0    0    0  101  0.0000000000E+00  0.0000000000E+00 -2.2422851873E+02  2.2422851873E+02  0.0000000000E+00 0. 9.
 1000024    2    1    2    0    0  1.2542449133E+02  5.4738878537E+01  5.9246965762E+01  3.0760018637E+02  2.6903535800E+02 0. 9.
 1000023    2    1    2    0    0 -1.2542449133E+02 -5.4738878537E+01  1.2740743159E+02  3.2751124844E+02  2.6889276000E+02 0. 9.
 1000022    1    3    0    0    0  1.3894690292E+01 -3.1593074699E+01 -3.4733648311E+00  1.3354525670E+02  1.2896157000E+02 0. 9.
      24    2    3    0    0    0  1.1152980104E+02  8.6331953236E+01  6.2720330593E+01  1.7405492967E+02  8.0431188000E+01 0. 9.
 1000022    1    4    0    0    0 -9.9589610468E+01 -3.5464034528E+01  9.7253690303E+01  1.9304184798E+02  1.2896157000E+02 0. 9.
      25    1    4    0    0    0 -2.5834880864E+01 -1.9274844009E+01  3.0153741288E+01  1.3446940046E+02  1.2701893900E+02 0. 9.
      -1    1    6    0    0  102  1.1522662974E+02  7.6138732876E+01  7.5413226508E+01  1.5735802006E+02  3.3000000000E-01 0. 9.
       2    1    6    0  102    0 -3.6968287003E+00  1.0193220360E+01 -1.2692895915E+01  1.6696909608E+01  3.3000000000E-01 0. 9.
</event>
<event>
    18   258  1.000000E+00  9.455670E+02  7.972123E-03  9.332167E-02
       2   -1    0    0  101    0  0.0000000000E+00  0.0000000000E+00  8.2699471269E+02  8.2699471269E+02  0.0000000000E+00 0. 9.
      21   -1    0    0  102  101  0.0000000000E+00  0.0000000000E+00 -1.7334759908E+03  1.7334759908E+03  0.0000000000E+00 0. 9.
 1000002    2    1    2  103    0 -1.0342049986E+02 -1.3310084045E+02  3.1530446576E+02  1.0539987307E+03  9.9150632100E+02 0. 9.
 1000021    2    1    2  102  103  1.0342049986E+02  1.3310084045E+02 -1.2217857439E+03  1.5064719728E+03  8.6503512500E+02 0. 9.
 1000021    2    3    0  103  104  2.0839314301E+01 -7.8699472474E+01  2.9025894142E+02  9.1605889797E+02  8.6503512500E+02 0. 9.
       2    1    3    0  104    0 -1.2425981416E+02 -5.4401367975E+01  2.5045524339E+01  1.3793983269E+02  3.3000000000E-01 0. 9.
 1000023    2    4    0    0    0 -8.6821636994E+01  3.3995588550E+02 -9.7219977204E+02  1.0679811393E+03  2.6889276000E+02 0. 9.
       3    1    4    0  102    0  1.2141886788E+02 -2.2426790853E+02 -1.0190797880E+02  2.7463452517E+02  5.0000000000E-01 0. 9.
      -3    1    4    0    0  103  6.8823268974E+01  1.7412863476E+01 -1.4767799303E+02  1.6385630837E+02  5.0000000000E-01 0. 9.
-1000024    2    5    0    0    0  2.3392515402E+02  1.2741611566E+01 -8.4920189697E+01  3.6670804303E+02  2.6903535800E+02 0. 9.
       6    1    5    0  103    0 -4.9535141329E+01 -1.3216101440E+02  1.5455118950E+02  2.7166997282E+02  1.7320000000E+02 0. 9.
      -5    1    5    0    0  104 -1.6355069839E+02  4.0719930359E+01  2.2062794162E+02  2.7768088212E+02  4.8000000000E+00 0. 9.
 1000022    1    7    0    0    0 -2.3331957323E+01  2.0928093131E+02 -4.9297848161E+02  5.5136354459E+02  1.2896157000E+02 0. 9.
      25    1    7    0    0    0 -6.3489679671E+01  1.3067495419E+02 -4.7922129043E+02  5.1661759469E+02  1.2701893900E+02 0. 9.
 1000022    1   10    0    0    0  2.3379068855E+02  4.2126559916E+01 -7.4927902359E+01  2.8049600744E+02  1.2896157000E+02 0. 9.
     -24    2   10    0    0    0  1.3446547377E-01 -2.9384948350E+01 -9.9922873377E+00  8.6212035586E+01  8.0431188000E+01 0. 9.
      15    1   16    0    0    0  1.6818581965E+01 -5.3392156020E+01 -1.0449428909E+01  5.6973110476E+01  1.7770000000E+00 0. 9.
     -16    1   16    0    0    0 -1.6684116491E+01  2.4007207670E+01  4.5714157155E-01  2.9238925110E+01  0.0000000000E+00 0. 9.
</event>
<event>
    10   230  1.000000E+00  3.746169E+02  7.888299E-03  1.043201E-01
      -1   -1    0    0    0  101  0.0000000000E+00  0.0000000000E+00  1.0715680521E+02  1.0715680521E+02  0.0000000000E+00 0. 9.
       2   -1    0    0  101    0  0.0000000000E+00  0.0000000000E+00 -1.3221807686E+03  1.3221807686E+03  0.0000000000E+00 0. 9.
 1000023    2    1    2    0    0 -1.0954408303E+01 -2.6053050666E+02 -5.3785299760E+02  6.5542757599E+02  2.6889276000E+02 0. 9.
 1000024    2    1    2    0    0  1.0954408303E+01  2.6053050666E+02 -6.7717096575E+02  7.7390999778E+02  2.6903535800E+02 0. 9.
 1000022    1    3    0    0    0  1.0161426195E+01 -1.5623000291E+02 -2.3690174291E+02  3.1187271558E+02  1.2896157000E+02 0. 9.
      25    1    3    0    0    0 -2.1115834498E+01 -1.0430050375E+02 -3.0095125469E+02  3.4355486041E+02  1.2701893900E+02 0. 9.
 1000022    1    4    0    0    0  1.8179213601E+01  4.9695936041E+01 -3.4676511902E+02  3.7373426947E+02  1.2896157000E+02 0. 9.
      24    2    4    0    0    0 -7.2248052981E+00  2.1083457062E+02 -3.3040584673E+02  4.0017572832E+02  8.0431188000E+01 0. 9.
      -1    1    8    0    0  102  1.9109108087E+01  1.1379907868E+02 -2.3387249110E+02  2.6079079607E+02  3.3000000000E-01 0. 9.
       2    1    8    0  102    0 -2.6333913386E+01  9.7035491936E+01 -9.6533355631E+01  1.3938493225E+02  3.3000000000E-01 0. 9.
</event>
<event>
    12   226  1.000000E+00  2.984056E+02  7.867976E-03  1.074305E-01
       1   -1    0    0  101    0  0.0000000000E+00  0.0000000000E+00  9.4913260316E+02  9.4913260316E+02  0.0000000000E+00 0. 9.
      -1   -1    0    0    0  101  0.0000000000E+00  0.0000000000E+00 -1.2103304087E+02  1.2103304087E+02  0.0000000000E+00 0. 9.
-1000024    2    1    2    0    0 -1.3980989140E+01  1.2833720482E+02  6.6777976254E+02  7.3142035883E+02  2.6903535800E+02 0. 9.
 1000024    2    1    2    0    0  1.3980989140E+01 -1.2833720482E+02  1.6031979975E+02  3.3874528520E+02  2.6903535800E+02 0. 9.
 1000022    1    3    0    0    0 -1.8152247285E+01  1.4585831292E+02  5.7489106217E+02  6.0723551562E+02  1.2896157000E+02 0. 9.
     -24    2    3    0    0    0  4.1712581453E+00 -1.7521108105E+01  9.2888700376E+01  1.2418484322E+02  8.0431188000E+01 0. 9.
 1000022    1    4    0    0    0  1.9928232122E+00 -1.6479883225E+02  1.1081059170E+02  2.3679674876E+02  1.2896157000E+02 0. 9.
      24    2    4    0    0    0  1.1988165928E+01  3.6461627427E+01  4.9509208045E+01  1.0194853644E+02  8.0431188000E+01 0. 9.
       1    1    6    0  102    0  8.2222939385E+00 -3.7184436140E+01  9.6536543559E+01  1.0377717259E+02  3.3000000000E-01 0. 9.
      -2    1    6    0    0  102 -4.0510357932E+00  1.9663328035E+01 -3.6478431832E+00  2.0407670624E+01  3.3000000000E-01 0. 9.
      -1    1    8    0    0  103  5.2247511405E+00  6.1274148836E+01  4.4075429688E+01  7.5660899692E+01  3.3000000000E-01 0. 9.
       2    1    8    0  103    0  6.7634147875E+00 -2.4812521410E+01  5.4337783574E+00  2.6287636743E+01  3.3000000000E-01 0. 9.
</event>
<event>
    15   273  1.000000E+00  1.236216E+03  7.996722E-03  9.055783E-02
       1   -1    0    0  101    0  0.0000000000E+00  0.0000000000E+00  1.0827636569E+03  1.0827636569E+03  0.0000000000E+00 0. 9.
       2   -1    0    0  102    0  0.0000000000E+00  0.0000000000E+00 -1.5177169488E+03  1.5177169488E+03  0.0000000000E+00 0. 9.
 1000001    2    1    2  102    0 -1.9442177163E+02  7.1046297196E+02  1.2643692551E+02  1.2438707151E+03  9.9431916400E+02 0. 9.
 2000002    2    1    2  101    0  1.9442177163E+02 -7.1046297196E+02 -5.6139021738E+02  1.3566098906E+03  9.9129912700E+02 0. 9.
 1000023    2    3    0    0    0 -8.9489268828E+01  5.5688286495E+01  4.2724484850E+02  5.1570436438E+02  2.6889276000E+02 0. 9.
       1    1    3    0  102    0 -1.0493250281E+02  6.5477468547E+02 -3.0080792299E+02  7.2816635071E+02  3.3000000000E-01 0. 9.
 1000021    2    4    0  101  103  2.7303766353E+02 -7.1515441221E+02 -5.3936465350E+02  1.2748315167E+03  8.6503512500E+02 0. 9.
       2    1    4    0  103    0 -7.8615891892E+01  4.6914402480E+00 -2.2025563873E+01  8.1778373875E+01  3.3000000000E-01 0. 9.
 1000022    1    5    0    0    0 -8.8158366124E+01  3.0153035131E+01  2.4365494949E+02  2.9099815119E+02  1.2896157000E+02 0. 9.
      25    1    5    0    0    0 -1.3309027041E+00  2.5535251365E+01  1.8358989901E+02  2.2470621319E+02  1.2701893900E+02 0. 9.
 1000023    2    7    0    0    0  6.1041654197E+01 -3.6727871595E+02 -5.0177468722E+02  6.8022120802E+02  2.6889276000E+02 0. 9.
       4    1    7    0  101    0  9.4560231279E+01 -4.2424745793E+02  3.6393980986E+01  4.3618151583E+02  1.5000000000E+00 0. 9.
      -4    1    7    0    0  103  1.1743577805E+02  7.6371761662E+01 -7.3983947274E+01  1.5842879284E+02  1.5000000000E+00 0. 9.
 1000022    1   11    0    0    0  4.9863911176E+01 -2.5058541594E+02 -3.2289828848E+02  4.3147868031E+02  1.2896157000E+02 0. 9.
      25    1   11    0    0    0  1.1177743021E+01 -1.1669330001E+02 -1.7887639874E+02  2.4874252772E+02  1.2701893900E+02 0. 9.
</event>
<event>
    13   258  1.000000E+00  1.118598E+03  7.987528E-03  9.156945E-02
       2   -1    0    0  101    0  0.0000000000E+00  0.0000000000E+00  1.4652723587E+03  1.4652723587E+03  0.0000000000E+00 0. 9.
      21   -1    0    0  102  101  0.0000000000E+00  0.0000000000E+00 -1.1354304273E+03  1.1354304273E+03  0.0000000000E+00 0. 9.
 1000002    2    1    2  103    0 -5.7482836861E+02  2.3483493743E+02 -4.7833827440E+02  1.2639095658E+03  9.9150632100E+02 0. 9.
 1000021    2    1    2  102  103  5.7482836861E+02 -2.3483493743E+02  8.0818020572E+02  1.3367932202E+03  8.6503512500E+02 0. 9.
 1000022    1    3    0    0    0 -1.6352054065E+02  5.5895327259E+02 -4.3538480949E+02  7.3848408719E+02  1.2896157000E+02 0. 9.
       2    1    3    0  103    0 -4.1130782796E+02 -3.2411833517E+02 -4.2953464911E+01  5.2542547862E+02  3.3000000000E-01 0. 9.
 1000024    2    4    0    0    0  1.6929583146E+02 -3.3792827653E+02  9.4331486379E+01  4.7342903566E+02  2.6903535800E+02 0. 9.
      -6    1    4    0    0  103  2.6803019649E+02  1.1194244156E+02  5.7888290441E+02  6.7042893246E+02  1.7320000000E+02 0. 9.
       5    1    4    0  102    0  1.3750234066E+02 -8.8491024533E+00  1.3496581493E+02  1.9293525210E+02  4.8000000000E+00 0. 9.
 1000022    1    7    0    0    0  9.0213286874E+01 -8.6559035887E+01 -7.3007594127E+00  1.7976454447E+02  1.2896157000E+02 0. 9.
      24    2    7    0    0    0  7.9082544584E+01 -2.5136924064E+02  1.0163224579E+02  2.9366449119E+02  8.0431188000E+01 0. 9.
      -3    1   11    0    0  104  3.1844983035E+01 -7.3003185434E+01 -6.2965706301E+00  7.9896588349E+01  5.0000000000E-01 0. 9.
       4    1   11    0  104    0  4.7237561548E+01 -1.7836605521E+02  1.0792881642E+02  2.1376790284E+02  1.5000000000E+00 0. 9.
</event>
<event>
    17   258  1.000000E+00  1.079885E+03  7.984295E-03  9.193122E-02
      21   -1    0    0  101  102  0.0000000000E+00  0.0000000000E+00  9.3323648729E+02  9.3323648729E+02  0.0000000000E+00 0. 9.
       2   -1    0    0  102    0  0.0000000000E+00  0.0000000000E+00 -1.4169935478E+03  1.4169935478E+03  0.0000000000E+00 0. 9.
 1000021    2    1    2  101  103  1.4241273227E+01  5.4796350640E+02  1.7613110902E+02  1.0391221070E+03  8.6503512500E+02 0. 9.
 1000002    2    1    2  103    0 -1.4241273227E+01 -5.4796350640E+02 -6.5988816952E+02  1.3111079281E+03  9.9150632100E+02 0. 9.
 1000024    2    3    0    0    0  7.8689548336E+00 -7.4156144967E+00  1.3411388550E+02  3.0080470396E+02  2.6903535800E+02 0. 9.
      -6    1    3    0    0  103  1.2478396932E+02  2.3666875896E+02  1.8604127929E+02  3.6904300300E+02  1.7320000000E+02 0. 9.
       5    1    3    0  101    0 -1.1841165092E+02  3.1871036194E+02 -1.4402405577E+02  3.6927440003E+02  4.8000000000E+00 0. 9.
 1000024    2    4    0    0    0 -4.2206965147E+02 -2.3386337820E+02 -5.6017859519E+02  7.8677503311E+02  2.6903535800E+02 0. 9.
       1    1    4    0  103    0  4.0782837824E+02 -3.1410012820E+02 -9.9709574328E+01  5.2433289497E+02  3.3000000000E-01 0. 9.
 1000022    1    5    0    0    0  5.6455750119E+01 -3.6597491184E+01  1.4046173753E+02  2.0220587115E+02  1.2896157000E+02 0. 9.
      24    2    5    0    0    0 -4.8586795285E+01  2.9181876688E+01 -6.3478520299E+00  9.8598832810E+01  8.0431188000E+01 0. 9.
 1000022    1    8    0    0    0 -1.8605373119E+02 -1.9596044907E+02 -3.2561074195E+02  4.4234593962E+02  1.2896157000E+02 0. 9.
      24    2    8    0    0    0 -2.3601592028E+02 -3.7902929134E+01 -2.3456785324E+02  3.4442909349E+02  8.0431188000E+01 0. 9.
     -11    1   11    0    0    0 -6.0833442141E+01  4.1526935125E+01  1.0483340869E+01  7.4398215433E+01  5.1000000000E-04 0. 9.
      12    1   11    0    0    0  1.2246646856E+01 -1.2345058437E+01 -1.6831192899E+01  2.4200617377E+01  0.0000000000E+00 0. 9.
      -1    1   13    0    0  104 -1.9602004272E+02 -5.0875215297E+00 -1.5702012789E+02  2.5120742323E+02  3.3000000000E-01 0. 9.
       2    1   13    0  104    0 -3.9995877557E+01 -3.2815407604E+01 -7.7547725351E+01  9.3221670254E+01  3.3000000000E-01 0. 9.
</event>
<event>
    13   259  1.000000E+00  1.052765E+03  7.981961E-03  9.219426E-02
      21   -1    0    0  101  102  0.0000000000E+00  0.0000000000E+00  7.2010780628E+02  7.2010780628E+02  0.0000000000E+00 0. 9.
       2   -1    0    0  102    0  0.0000000000E+00  0.0000000000E+00 -1.6499437352E+03  1.6499437352E+03  0.0000000000E+00 0. 9.
 1000021    2    1    2  101  103  3.6267599726E+01 -4.9144520147E+02 -1.2932114501E+02  1.0039140655E+03  8.6503512500E+02 0. 9.
 2000002    2    1    2  103    0 -3.6267599726E+01  4.9144520147E+02 -8.0051478388E+02  1.3661374760E+03  9.9129912700E+02 0. 9.
 1000024    2    3    0    0    0 -1.6340202823E+02 -3.8704913535E+02 -3.8114373621E+02  6.2781990054E+02  2.6903535800E+02 0. 9.
      -4    1    3    0    0  103  2.0248406819E+02 -9.8778944432E+01  2.7302189483E+02  3.5397779986E+02  1.5000000000E+00 0. 9.
       3    1    3    0  101    0 -2.8144402323E+00 -5.6171216923E+00 -2.1199303638E+01  2.2116365087E+01  5.0000000000E-01 0. 9.
 1000022    1    4    0    0    0  4.2865239541E+02  1.7181508433E+02 -5.9848477764E+02  7.6686270929E+02  1.2896157000E+02 0. 9.
       2    1    4    0  103    0 -4.6491999513E+02  3.1963011714E+02 -2.0203000624E+02  5.9927476668E+02  3.3000000000E-01 0. 9.
 1000022    1    5    0    0    0 -1.0720464369E+02 -1.5352503015E+02 -2.6498024601E+02  3.4915381685E+02  1.2896157000E+02 0. 9.
      24    2    5    0    0    0 -5.6197384543E+01 -2.3352410519E+02 -1.1616349020E+02  2.7866608368E+02  8.0431188000E+01 0. 9.
     -11    1   11    0    0    0 -6.6899780114E+01 -1.1160712441E+02 -7.0855099376E+01  1.4816266704E+02  5.1000000000E-04 0. 9.
      12    1   11    0    0    0  1.0702395570E+01 -1.2191698079E+02 -4.5308390823E+01  1.3050341664E+02  0.0000000000E+00 0. 9.
</event>
<event>
    12   226  1.000000E+00  3.395394E+02  7.879502E-03  1.056422E-01
      -2   -1    0    0    0  101  0.0000000000E+00  0.0000000000E+00  8.9843878151E+01  8.9843878151E+01  0.0000000000E+00 0. 9.
       2   -1    0    0  101    0  0.0000000000E+00  0.0000000000E+00 -1.3047827500E+03  1.3047827500E+03  0.0000000000E+00 0. 9.
-1000024    2    1    2    0    0 -6.6096628404E+01  1.9631160605E+02 -6.9716743236E+02  7.7545435942E+02  2.6903535800E+02 0. 9.
 1000024    2    1    2    0    0  6.6096628404E+01 -1.9631160605E+02 -5.1777143951E+02  6.1917226874E+02  2.6903535800E+02 0. 9.
 1000022    1    3    0    0    0 -6.0137898744E+01  2.0105158476E+02 -4.2150264150E+02  4.8819450010E+02  1.2896157000E+02 0. 9.
     -24    2    3    0    0    0 -5.9587296599E+00 -4.7399787108E+00 -2.7566479086E+02  2.8725985933E+02  8.0431188000E+01 0. 9.
 1000022    1    4    0    0    0  2.3109565848E+01 -1.7661294232E+02 -2.3700309863E+02  3.2330749872E+02  1.2896157000E+02 0. 9.
      24    2    4    0    0    0  4.2987062557E+01 -1.9698663723E+01 -2.8076834087E+02  2.9586477002E+02  8.0431188000E+01 0. 9.
      11    1    6    0    0    0  5.3199897842E+00 -3.6578751926E+01 -7.3269433777E+01  8.2065323432E+01  5.1000000000E-04 0. 9.
     -12    1    6    0    0    0 -1.1278719444E+01  3.1838773215E+01 -2.0239535708E+02  2.0519453589E+02  0.0000000000E+00 0. 9.
      -3    1    8    0    0  102 -1.6663822438E+01  1.2603152564E+01 -3.3748474752E+01  3.9695490687E+01  5.0000000000E-01 0. 9.
       4    1    8    0  102    0  5.9650884994E+01 -3.2301816287E+01 -2.4701986612E+02  2.5616927933E+02  1.5000000000E+00 0. 9.
</event>
<event>
    10   230  1.000000E+00  3.170107E+02  7.873370E-03  1.065854E-01
      -2   -1    0    0    0  101  0.0000000000E+00  0.0000000000E+00  8.2969881245E+01  8.2969881245E+01  0.0000000000E+00 0. 9.
       1   -1    0    0  101    0  0.0000000000E+00  0.0000000000E+00 -1.8541705965E+03  1.8541705965E+03  0.0000000000E+00 0. 9.
-1000024    2    1    2    0    0 -6.6606784479E+01 -1.5400537030E+02 -3.1536136033E+02  4.4719898173E+02  2.6903535800E+02 0. 9.
 1000023    2    1    2    0    0  6.6606784479E+01  1.5400537030E+02 -1.4558393550E+03  1.4899414961E+03  2.6889276000E+02 0. 9.
 1000022    1    3    0    0    0 -6.5487982038E+01 -6.8063391617E+01 -2.8315343686E+02  3.2515881721E+02  1.2896157000E+02 0. 9.
     -24    2    3    0    0    0 -1.1188024406E+00 -8.5941978679E+01 -3.2207923471E+01  1.2204016452E+02  8.0431188000E+01 0. 9.
 1000022    1    4    0    0    0  4.4679339584E+01  8.6272492595E+01 -9.4748906000E+02  9.6114816326E+02  1.2896157000E+02 0. 9.
      25    1    4    0    0    0  2.1927444895E+01  6.7732877700E+01 -5.0835029496E+02  5.2879333280E+02  1.2701893900E+02 0. 9.
       3    1    6    0  102    0  2.5531210346E+01 -1.4501305504E+01  1.4352792012E+01  3.2686131640E+01  5.0000000000E-01 0. 9.
      -4    1    6    0    0  102 -2.6650012787E+01 -7.1440673175E+01 -4.6560715483E+01  8.9354032877E+01  1.5000000000E+00 0. 9.
</event>
<event>
    10   230  1.000000E+00  3.098046E+02  7.871318E-03  1.069051E-01
      -1   -1    0    0    0  101  0.0000000000E+00  0.0000000000E+00  1.2075296729E+02  1.2075296729E+02  0.0000000000E+00 0. 9.
       2   -1    0    0  101    0  0.0000000000E+00  0.0000000000E+00 -9.5199009014E+02  9.5199009014E+02  0.0000000000E+00 0. 9.
 1000023    2    1    2    0    0 -6.4711978521E+01  1.3946178816E+02 -1.9762210006E+02  3.6741671346E+02  2.6889276000E+02 0. 9.
 1000024    2    1    2    0    0  6.4711978521E+01 -1.3946178816E+02 -6.3361502280E+02  7.0532634397E+02  2.6903535800E+02 0. 9.
 1000022    1    3    0    0    0 -4.0077834046E+01  1.1573958291E+02 -1.0501419618E+02  2.0654527777E+02  1.2896157000E+02 0. 9.
      25    1    3    0    0    0 -2.4634144475E+01  2.3722205249E+01 -9.2607903876E+01  1.6087143569E+02  1.2701893900E+02 0. 9.
 1000022    1    4    0    0    0  3.7354038261E+01 -1.7225671273E+02 -4.6314290209E+02  5.1205481498E+02  1.2896157000E+02 0. 9.
      24    2    4    0    0    0  2.7357940260E+01  3.2794924570E+01 -1.7047212071E+02  1.9327152898E+02  8.0431188000E+01 0. 9.
      -3    1    8    0    0  102  4.0090919940E+01  4.6024259714E+01 -7.8322596689E+01  9.9298507018E+01  5.0000000000E-01 0. 9.
       4    1    8    0  102    0 -1.2732979680E+01 -1.3229335144E+01 -9.2149524022E+01  9.3973021966E+01  1.5000000000E+00 0. 9.
</event>
<event>
    15   241  1.000000E+00  6.434343E+02  7.937055E-03  9.760005E-02
      -1   -1    0    0    0  101  0.0000000000E+00  0.0000000000E+00  5.4139962763E+02  5.4139962763E+02  0.0000000000E+00 0. 9.
       2   -1    0    0  102    0  0.0000000000E+00  0.0000000000E+00 -1.2881914159E+03  1.2881914159E+03  0.0000000000E+00 0. 9.
 1000021    2    1    2  102  101 -4.5412745538E+01  4.0156131526E+01 -1.0877255633E+03  1.3910814141E+03  8.6503512500E+02 0. 9.
 1000024    2    1    2    0    0  4.5412745538E+01 -4.0156131526E+01  3.4093377493E+02  4.3850962942E+02  2.6903535800E+02 0. 9.
-1000024    2    3    0    0    0 -5.8915858706E+01  1.9560134988E+02 -7.0166291479E+02  7.7874375524E+02  2.6903535800E+02 0. 9.
       4    1    3    0  102    0 -1.6748123994E+02 -1.7689034972E+02 -3.5019611067E+02  4.2659081974E+02  1.5000000000E+00 0. 9.
      -3    1    3    0    0  101  1.8098435311E+02  2.1445131369E+01 -3.5866537791E+01  1.8574683917E+02  5.0000000000E-01 0. 9.
 1000022    1    4    0    0    0  2.3340133595E+01 -1.0010271231E+02  2.5933601158E+02  3.0732973869E+02  1.2896157000E+02 0. 9.
      24    2    4    0    0    0  2.2072611943E+01  5.9946580780E+01  8.1597763350E+01  1.3117989073E+02  8.0431188000E+01 0. 9.
 1000022    1    5    0    0    0 -1.1454233342E+02  1.1858563063E+02 -4.9578030424E+02  5.3815582738E+02  1.2896157000E+02 0. 9.
     -24    2    5    0    0    0  5.5626474718E+01  7.7015719241E+01 -2.0588261055E+02  2.4058792785E+02  8.0431188000E+01 0. 9.
     -13    1    9    0    0    0  1.8957215794E+01  7.1560930971E+01  8.9981809389E+01  1.1652072801E+02  1.0566000000E-01 0. 9.
      14    1    9    0    0    0  3.1153961492E+00 -1.1614350191E+01 -8.3840460394E+00  1.4659162715E+01  0.0000000000E+00 0. 9.
       1    1   11    0  103    0  3.2493691061E+01  8.0683939162E+01 -1.9733198075E+02  2.1565193605E+02  3.3000000000E-01 0. 9.
      -2    1   11    0    0  103  2.3132783657E+01 -3.6682199210E+00 -8.5506298006E+00  2.4935991801E+01  3.3000000000E-01 0. 9.
</event>
<event>
    13   259  1.000000E+00  1.024444E+03  7.979461E-03  9.247796E-02
       2   -1    0    0  101    0  0.0000000000E+00  0.0000000000E+00  2.1788673055E+03  2.1788673055E+03  0.0000000000E+00 0. 9.
      21   -1    0    0  102  101  0.0000000000E+00  0.0000000000E+00 -4.9104905513E+02  4.9104905513E+02  0.0000000000E+00 0. 9.
 2000002    2    1    2  103    0 -3.3981198992E+02 -2.6178930186E+02  6.9163503664E+02  1.2825906635E+03  9.9129912700E+02 0. 9.
 1000021    2    1    2  102  103  3.3981198992E+02  2.6178930186E+02  9.9618321378E+02  1.3873256971E+03  8.6503512500E+02 0. 9.
 1000022    1    3    0    0    0 -7.7373119424E+01  2.7930154715E+02 -5.7029333509E+01  3.2230325048E+02  1.2896157000E+02 0. 9.
       2    1    3    0  103    0 -2.6243887050E+02 -5.4109084901E+02  7.4866437015E+02  9.6028741305E+02  3.3000000000E-01 0. 9.
 1000024    2    4    0    0    0  2.1709473222E+02 -1.3793900535E+02  7.7295831567E+02  8.5790551553E+02  2.6903535800E+02 0. 9.
      -6    1    4    0    0  103  9.0874546237E+01  3.0374272762E+02  1.1025074923E+02  3.7771853998E+02  1.7320000000E+02 0. 9.
       5    1    4    0  102    0  3.1842711463E+01  9.5985579593E+01  1.1297414887E+02  1.5170164164E+02  4.8000000000E+00 0. 9.
 1000022    1    7    0    0    0  1.4905072736E+02 -8.6190813407E+01  2.9111708457E+02  3.6197405861E+02  1.2896157000E+02 0. 9.
      24    2    7    0    0    0  6.8044004859E+01 -5.1748191941E+01  4.8184123110E+02  4.9593145692E+02  8.0431188000E+01 0. 9.
      -1    1   11    0    0  104  5.2653226338E+01 -4.1815770493E-01  3.4458276077E+02  3.4858273770E+02  3.3000000000E-01 0. 9.
       2    1   11    0  104    0  1.5390778521E+01 -5.1330034236E+01  1.3725847033E+02  1.4734871922E+02  3.3000000000E-01 0. 9.
</event>
<event>
    12   226  1.000000E+00  2.698549E+02  7.859023E-03  1.088657E-01
       2   -1    0    0  101    0  0.0000000000E+00  0.0000000000E+00  2.1195807394E+03  2.1195807394E+03  0.0000000000E+00 0. 9.
      -2   -1    0    0    0  101  0.0000000000E+00  0.0000000000E+00 -6.7616338070E+01  6.7616338070E+01  0.0000000000E+00 0. 9.
 1000024    2    1    2    0    0 -2.1012563663E+01 -3.4503493956E-01  2.5898945872E+02  3.7402835516E+02  2.6903535800E+02 0. 9.
-1000024    2    1    2    0    0  2.1012563663E+01  3.4503493956E-01  1.7929749426E+03  1.8131687223E+03  2.6903535800E+02 0. 9.
 1000022    1    3    0    0    0 -5.3364814656E+01 -4.4333595796E+01  7.1785995447E+01  1.6308766611E+02  1.2896157000E+02 0. 9.
      24    2    3    0    0    0  3.2352250993E+01  4.3988560857E+01  1.8720346327E+02  2.1094068904E+02  8.0431188000E+01 0. 9.
 1000022    1    4    0    0    0 -4.9973081913E+01  5.4575931814E+01  9.1453262034E+02  9.2654025355E+02  1.2896157000E+02 0. 9.
     -24    2    4    0    0    0  7.0985645576E+01 -5.4230896875E+01  8.7844232226E+02  8.8662846875E+02  8.0431188000E+01 0. 9.
      -1    1    6    0    0  102  5.7732435812E+00  6.3125232022E+01  1.0794457038E+02  1.2518092679E+02  3.3000000000E-01 0. 9.
       2    1    6    0  102    0  2.6579007412E+01 -1.9136671165E+01  7.9258892891E+01  8.5759762247E+01  3.3000000000E-01 0. 9.
       3    1    8    0  103    0  1.2815192779E+01 -5.4770916345E+01  2.9690716821E+02  3.0218901200E+02  5.0000000000E-01 0. 9.
      -4    1    8    0    0  103  5.8170452797E+01  5.4001947061E-01  5.8153515406E+02  5.8443945675E+02  1.5000000000E+00 0. 9.
</event>
<event>
    16   244  1.000000E+00  8.714378E+02  7.964660E-03  9.419736E-02
      21   -1    0    0  101  102  0.0000000000E+00  0.0000000000E+00  7.4376555486E+02  7.4376555486E+02  0.0000000000E+00 0. 9.
      21   -1    0    0  102  103  0.0000000000E+00  0.0000000000E+00 -1.0214456645E+03  1.0214456645E+03  0.0000000000E+00 0. 9.
 1000021    2    1    2  101  104  5.9121813613E+01  8.7307926882E+01 -1.5673403122E+02  8.8542045773E+02  8.6503512500E+02 0. 9.
 1000021    2    1    2  104  103 -5.9121813613E+01 -8.7307926882E+01 -1.2094607846E+02  8.7979076167E+02  8.6503512500E+02 0. 9.
-1000024    2    3    0    0    0  2.2425480574E+02  4.4670478403E+01  2.0658119432E+02  4.0907393371E+02  2.6903535800E+02 0. 9.
       2    1    3    0  101    0  1.1312536979E+01  9.0001837255E+01 -2.3828397358E+02  2.5496600787E+02  3.3000000000E-01 0. 9.
      -1    1    3    0    0  104 -1.7644552910E+02 -4.7364388776E+01 -1.2503125196E+02  2.2138051615E+02  3.3000000000E-01 0. 9.
 1000023    2    4    0    0    0  2.6501427367E+01  2.3636815174E+02  1.8612636053E+02  4.0437429106E+02  2.6889276000E+02 0. 9.
       2    1    4    0  104    0 -1.4899343958E+01 -2.5793480337E+01 -1.0362149678E+02  1.0781844728E+02  3.3000000000E-01 0. 9.
      -2    1    4    0    0  103 -7.0723897022E+01 -2.9788259828E+02 -2.0345094221E+02  3.6759802333E+02  3.3000000000E-01 0. 9.
 1000022    1    5    0    0    0  1.9330162535E+02  9.6391706695E+01  1.6125273723E+02  2.9881501181E+02  1.2896157000E+02 0. 9.
     -24    2    5    0    0    0  3.0953180384E+01 -5.1721228292E+01  4.5328457099E+01  1.1025892190E+02  8.0431188000E+01 0. 9.
 1000022    1    8    0    0    0 -2.6070075841E+01  1.3091714785E+02  9.0834017600E+01  2.0664184897E+02  1.2896157000E+02 0. 9.
      25    1    8    0    0    0  5.2571503208E+01  1.0545100389E+02  9.5292342932E+01  1.9773244210E+02  1.2701893900E+02 0. 9.
       3    1   12    0  105    0 -1.9661525664E+01 -1.7534838932E+01 -9.6563839680E+00  2.8063177282E+01  5.0000000000E-01 0. 9.
      -4    1   12    0    0  105  5.0614706048E+01 -3.4186389361E+01  5.4984841067E+01  8.2195744616E+01  1.5000000000E+00 0. 9.
</event>
<event>
     8   217  1.000000E+00  4.512584E+02  7.905009E-03  1.019057E-01
       2   -1    0    0  101    0  0.0000000000E+00  0.0000000000E+00  7.3960818740E+02  7.3960818740E+02  0.0000000000E+00 0. 9.
      -2   -1    0    0    0  101  0.0000000000E+00  0.0000000000E+00 -2.8613523359E+02  2.8613523359E+02  0.0000000000E+00 0. 9.
 1000023    2    1    2    0    0  2.1643328759E+01  3.6174905462E+02  1.2705837657E+02  4.6880482041E+02  2.6889276000E+02 0. 9.
 1000023    2    1    2    0    0 -2.1643328759E+01 -3.6174905462E+02  3.2641457724E+02  5.5693860058E+02  2.6889276000E+02 0. 9.
 1000022    1    3    0    0    0  4.6692805543E+01  2.0238342907E+02  8.7746684913E+01  2.5974956728E+02  1.2896157000E+02 0. 9.
      25    1    3    0    0    0 -2.5049476784E+01  1.5936562555E+02  3.9311691661E+01  2.0905525312E+02  1.2701893900E+02 0. 9.
 1000022    1    4    0    0    0  3.0444725465E+00 -2.1144408143E+02  2.2291452498E+02  3.3322641007E+02  1.2896157000E+02 0. 9.
      25    1    4    0    0    0 -2.4687801305E+01 -1.5030497319E+02  1.0350005226E+02  2.2371219051E+02  1.2701893900E+02 0. 9.
</event>
<event>
    17   273  1.000000E+00  1.037510E+03  7.980622E-03  9.234589E-02
       3   -1    0    0  101    0  0.0000000000E+00  0.0000000000E+00  1.5658908808E+03  1.5658908808E+03  0.0000000000E+00 0. 9.
       1   -1    0    0  102    0  0.0000000000E+00  0.0000000000E+00 -1.2654213614E+03  1.2654213614E+03  0.0000000000E+00 0. 9.
 1000003    2    1    2  102    0 -1.6133151430E+02  2.5362233504E+02  1.1070957284E+03  1.5181184730E+03  9.9431916400E+02 0. 9.
 2000001    2    1    2  101    0  1.6133151430E+02 -2.5362233504E+02 -8.0662620905E+02  1.3131937692E+03  9.9170554500E+02 0. 9.
-1000024    2    3    0    0    0 -1.2740894442E+02  6.0332431404E+02  8.4320499301E+02  1.0787066103E+03  2.6903535800E+02 0. 9.
       4    1    3    0  102    0 -3.3922569883E+01 -3.4970197899E+02  2.6389073540E+02  4.3941186270E+02  1.5000000000E+00 0. 9.
 1000021    2    4    0  101  103  1.4738452582E+02 -3.2434267605E+02 -8.1485429687E+02  1.2406424394E+03  8.6503512500E+02 0. 9.
       1    1    4    0  103    0  1.3946988479E+01  7.0720341001E+01  8.2280878141E+00  7.2551329747E+01  3.3000000000E-01 0. 9.
 1000022    1    5    0    0    0 -3.1510343550E+01  4.3625443226E+02  4.9755408256E+02  6.7490887016E+02  1.2896157000E+02 0. 9.
     -24    2    5    0    0    0 -9.5898600869E+01  1.6706988178E+02  3.4565091045E+02  4.0379774014E+02  8.0431188000E+01 0. 9.
 1000023    2    7    0    0    0  2.8914331584E+02 -4.0179209679E+02 -8.5341469279E+02  1.0225755231E+03  2.6889276000E+02 0. 9.
       4    1    7    0  101    0 -9.2017756619E+01  7.1536104999E+01  8.9234337654E+01  1.4679815690E+02  1.5000000000E+00 0. 9.
      -4    1    7    0    0  103 -4.9741033402E+01  5.9133157476E+00 -5.0673941735E+01  7.1268759481E+01  1.5000000000E+00 0. 9.
       1    1   10    0  104    0 -1.3321233962E+01  2.8325229242E+01  1.3391392284E+02  1.3752389435E+02  3.3000000000E-01 0. 9.
      -2    1   10    0    0  104 -8.2577366907E+01  1.3874465254E+02  2.1173698761E+02  2.6627384580E+02  3.3000000000E-01 0. 9.
 1000022    1   11    0    0    0  8.8252214722E+01 -1.6601964714E+02 -3.6816127414E+02  4.3304132246E+02  1.2896157000E+02 0. 9.
      25    1   11    0    0    0  2.0089110112E+02 -2.3577244965E+02 -4.8525341864E+02  5.8953420061E+02  1.2701893900E+02 0. 9.
</event>
<event>
    12   230  1.000000E+00  2.980301E+02  7.867864E-03  1.074482E-01
       2   -1    0    0  101    0  0.0000000000E+00  0.0000000000E+00  4.5562161186E+02  4.5562161186E+02  0.0000000000E+00 0. 9.
      -1   -1    0    0    0  101  0.0000000000E+00  0.0000000000E+00 -2.6213600358E+02  2.6213600358E+02  0.0000000000E+00 0. 9.
 1000024    2    1    2    0    0 -7.4124033505E+01  1.0481359854E+02  2.7844981024E+02  4.0791492184E+02  2.6903535800E+02 0. 9.
 1000023    2    1    2    0    0  7.4124033505E+01 -1.0481359854E+02 -8.4964201963E+01  3.0984269360E+02  2.6889276000E+02 0. 9.
 1000022    1    3    0    0    0  3.0504304547E+01  4.9934681364E+00  1.2555612779E+02  1.8262221958E+02  1.2896157000E+02 0. 9.
      24    2    3    0    0    0 -1.0462833805E+02  9.9820130402E+01  1.5289368245E+02  2.2529270226E+02  8.0431188000E+01 0. 9.
 1000022    1    4    0    0    0  3.3671453878E+01 -9.4849256946E+01 -1.2082130477E+02  2.0336917803E+02  1.2896157000E+02 0. 9.
      23    2    4    0    0    0  4.0452579628E+01 -9.9643415923E+00  3.5857102809E+01  1.0647351557E+02  9.1187600000E+01 0. 9.
     -13    1    6    0    0    0  4.2033889260E+00  4.0232355347E+01  2.7676276290E+01  4.9013246460E+01  1.0566000000E-01 0. 9.
      14    1    6    0    0    0 -1.0883172698E+02  5.9587775055E+01  1.2521740616E+02  1.7627945580E+02  0.0000000000E+00 0. 9.
       5    1    8    0  102    0  4.5786428403E+01 -1.5379116902E+01  6.2051036134E+01  7.8779980629E+01  4.8000000000E+00 0. 9.
      -5    1    8    0    0  102 -5.3338487755E+00  5.4147753093E+00 -2.6193933325E+01  2.7693534939E+01  4.8000000000E+00 0. 9.
</event>
<event>
    20   259  1.000000E+00  1.144090E+03  7.989599E-03  9.133948E-02
       2   -1    0    0  101    0  0.0000000000E+00  0.0000000000E+00  1.4995396429E+03  1.4995396429E+03  0.0000000000E+00 0. 9.
      21   -1    0    0  102  101  0.0000000000E+00  0.0000000000E+00 -8.7760613709E+02  8.7760613709E+02  0.0000000000E+00 0. 9.
 2000002    2    1    2  103    0 -1.6419088744E+02  6.4537060144E+02  2.2291436491E+02  1.2148360523E+03  9.9129912700E+02 0. 9.
 1000021    2    1    2  102  103  1.6419088744E+02 -6.4537060144E+02  3.9901914086E+02  1.1623097276E+03  8.6503512500E+02 0. 9.
 1000021    2    3    0  103  104 -1.0007137073E+02  4.6164146686E+02  2.5391734235E+02  1.0177852953E+03  8.6503512500E+02 0. 9.
       2    1    3    0  104    0 -6.4119516713E+01  1.8372913458E+02 -3.1002977434E+01  1.9705075698E+02  3.3000000000E-01 0. 9.
 1000024    2    4    0    0    0  1.8989247889E+01 -6.5441096437E+02  2.7858733984E+02  7.6066104908E+02  2.6903535800E+02 0. 9.
      -4    1    4    0    0  103  1.6444460978E+02 -9.1227149225E+01  1.9826307865E+02  2.7326712352E+02  1.5000000000E+00 0. 9.
       3    1    4    0  102    0 -1.9242970231E+01  1.0026751215E+02 -7.7831277631E+01  1.2838155504E+02  5.0000000000E-01 0. 9.
-1000024    2    5    0    0    0  2.1704329876E+01  2.2370586024E+02  1.9661122691E+02  4.0193455716E+02  2.6903535800E+02 0. 9.
       6    1    5    0  103    0 -1.9270138925E+02  1.6477055770E+02 -1.8113867393E+02  3.5650052076E+02  1.7320000000E+02 0. 9.
      -5    1    5    0    0  104  7.0925688650E+01  7.3165048925E+01  2.3844478937E+02  2.5935021741E+02  4.8000000000E+00 0. 9.
 1000022    1    7    0    0    0  8.4007088487E+01 -3.1152410566E+02  1.6712029062E+02  3.8557066460E+02  1.2896157000E+02 0. 9.
      24    2    7    0    0    0 -6.5017840598E+01 -3.4288685871E+02  1.1146704922E+02  3.7509038449E+02  8.0431188000E+01 0. 9.
 1000022    1   10    0    0    0  2.4595119393E+01  5.2809502156E+01  1.9235491222E+01  1.4281055309E+02  1.2896157000E+02 0. 9.
     -24    2   10    0    0    0 -2.8907895164E+00  1.7089635808E+02  1.7737573569E+02  2.5912400407E+02  8.0431188000E+01 0. 9.
      -1    1   14    0    0  105 -2.0788987746E+01 -2.8077738883E+02  8.0857043990E+01  2.9292677336E+02  3.3000000000E-01 0. 9.
       2    1   14    0  105    0 -4.4228852851E+01 -6.2109469877E+01  3.0610005229E+01  8.2163611125E+01  3.3000000000E-01 0. 9.
       3    1   16    0  106    0 -5.2999318745E+00  1.1202146464E+02  5.8618655974E+01  1.2654364720E+02  5.0000000000E-01 0. 9.
      -4    1   16    0    0  106  2.4091423581E+00  5.8874893438E+01  1.1875707972E+02  1.3258035687E+02  1.5000000000E+00 0. 9.
</event>
<event>
    16   258  1.000000E+00  1.118209E+03  7.987496E-03  9.157300E-02
      21   -1    0    0  101  102  0.0000000000E+00  0.0000000000E+00  1.2226808730E+03  1.2226808730E+03  0.0000000000E+00 0. 9.
       2   -1    0    0  102    0  0.0000000000E+00  0.0000000000E+00 -2.0346392664E+03  2.0346392664E+03  0.0000000000E+00 0. 9.
 1000021    2    1    2  101  103 -4.4745861985E+02 -4.2952037015E+02 -1.5456498299E+03  1.8767061914E+03  8.6503512500E+02 0. 9.
 1000002    2    1    2  103    0  4.4745861985E+02  4.2952037015E+02  7.3369143650E+02  1.3806139480E+03  9.9150632100E+02 0. 9.
 1000024    2    3    0    0    0 -1.6928188503E+02 -4.5460580688E+02 -8.0664539036E+02  9.7896864397E+02  2.6903535800E+02 0. 9.
      -6    1    3    0    0  103 -1.0644840170E+02  1.2958303962E+02 -6.1726905098E+02  6.6267816297E+02  1.7320000000E+02 0. 9.
       5    1    3    0  101    0 -1.7172833312E+02 -1.0449760290E+02 -1.2173538854E+02  2.3505938448E+02  4.8000000000E+00 0. 9.
 1000021    2    4    0  103  104  2.8998800191E+02  3.9938713400E+02  6.9850658362E+02  1.2164704431E+03  8.6503512500E+02 0. 9.
       2    1    4    0  104    0  1.5747061794E+02  3.0133236156E+01  3.5184852879E+01  1.6414350492E+02  3.3000000000E-01 0. 9.
 1000022    1    5    0    0    0 -1.8339718675E+02 -3.8162280764E+02 -6.0666774511E+02  7.5096427006E+02  1.2896157000E+02 0. 9.
      24    2    5    0    0    0  1.4115301723E+01 -7.2982999240E+01 -1.9997764525E+02  2.2800437391E+02  8.0431188000E+01 0. 9.
 1000022    1    8    0    0    0 -1.2081714155E+02  3.5883927859E+02  2.7459366812E+02  4.8517541020E+02  1.2896157000E+02 0. 9.
       1    1    8    0  103    0  1.7761770732E+02  1.6554132930E+02  1.3732362737E+01  2.4318854485E+02  3.3000000000E-01 0. 9.
      -1    1    8    0    0  104  2.3318743614E+02 -1.2499347390E+02  4.1018055277E+02  4.8810648803E+02  3.3000000000E-01 0. 9.
      -1    1   11    0    0  105 -2.9539448377E+01 -2.2396484931E+01 -3.9500191606E+01  5.4171538511E+01  3.3000000000E-01 0. 9.
       2    1   11    0  105    0  4.3654750099E+01 -5.0586514309E+01 -1.6047745364E+02  1.7383283540E+02  3.3000000000E-01 0. 9.
</event>
<event>
    18   244  1.000000E+00  1.135619E+03  7.988916E-03  9.141519E-02
      21   -1    0    0  101  102  0.0000000000E+00  0.0000000000E+00  1.1985350043E+03  1.1985350043E+03  0.0000000000E+00 0. 9.
      21   -1    0    0  103  101  0.0000000000E+00  0.0000000000E+00 -1.2638528508E+03  1.2638528508E+03  0.0000000000E+00 0. 9.
 1000021    2    1    2  104  102 -7.2108857464E+02  1.4620582637E+02  4.4199860416E+02  1.2186030567E+03  8.6503512500E+02 0. 9.
 1000021    2    1    2  103  104  7.2108857464E+02 -1.4620582637E+02 -5.0731645071E+02  1.2437847984E+03  8.6503512500E+02 0. 9.
 1000023    2    3    0    0    0 -9.1389563688E+01  7.1960000123E+01  2.0088650574E+01  2.9366164923E+02  2.6889276000E+02 0. 9.
       2    1    3    0  104    0 -6.5646925309E+02  1.4588813520E+02  4.8224715428E+02  8.2752501772E+02  3.3000000000E-01 0. 9.
      -2    1    3    0    0  102  2.6770242139E+01 -7.1642308951E+01 -6.0337200692E+01  9.7416389706E+01  3.3000000000E-01 0. 9.
 1000024    2    4    0    0    0  3.9727050205E+02 -1.6841863516E+02 -1.6218120546E+02  5.3373350628E+02  2.6903535800E+02 0. 9.
      -6    1    4    0    0  104  4.8738325013E+01 -1.6554898133E+02 -2.1192141468E+01  2.4541645504E+02  1.7320000000E+02 0. 9.
       5    1    4    0  103    0  2.7507974757E+02  1.8776179012E+02 -3.2394310378E+02  4.6463483710E+02  4.8000000000E+00 0. 9.
 1000022    1    5    0    0    0 -1.2236355141E+02  4.3917666758E+01  4.8458471987E+01  1.8942257049E+02  1.2896157000E+02 0. 9.
      23    2    5    0    0    0  3.0973987725E+01  2.8042333365E+01 -2.8369821414E+01  1.0423907874E+02  9.1187600000E+01 0. 9.
 1000022    1    8    0    0    0  2.7449080182E+02 -1.5127862064E+02 -1.8190981522E+02  3.8464618646E+02  1.2896157000E+02 0. 9.
      24    2    8    0    0    0  1.2277970023E+02 -1.7140014522E+01  1.9728609757E+01  1.4908731983E+02  8.0431188000E+01 0. 9.
      14    1   12    0    0    0  2.2813060237E+01 -2.9626112712E+01  4.0004261733E+00  3.7605128392E+01  0.0000000000E+00 0. 9.
     -14    1   12    0    0    0  8.1609274878E+00  5.7668446077E+01 -3.2370247587E+01  6.6633950350E+01  0.0000000000E+00 0. 9.
     -13    1   14    0    0    0  1.6550998071E+01  2.5093905153E+00 -2.6690508055E+01  3.1505982959E+01  1.0566000000E-01 0. 9.
      14    1   14    0    0    0  1.0622870216E+02 -1.9649405037E+01  4.6419117812E+01  1.1758133687E+02  0.0000000000E+00 0. 9.
</event>
<event>
    12   226  1.000000E+00  3.251353E+02  7.875629E-03  1.062358E-01
      -2   -1    0    0    0  101  0.0000000000E+00  0.0000000000E+00  1.0334561129E+02  1.0334561129E+02  0.0000000000E+00 0. 9.
       2   -1    0    0  101    0  0.0000000000E+00  0.0000000000E+00 -1.0616025324E+03  1.0616025324E+03  0.0000000000E+00 0. 9.
-1000024    2    1    2    0    0  5.0001828045E+01 -1.7559267339E+02 -3.6792363655E+02  4.9099979220E+02  2.6903535800E+02 0. 9.
 1000024    2    1    2    0    0 -5.0001828045E+01  1.7559267339E+02 -5.9033328452E+02  6.7394835145E+02  2.6903535800E+02 0. 9.
 1000022    1    3    0    0    0 -6.6835278641E+00 -1.3853697909E+02 -3.2756640982E+02  3.7837547952E+02  1.2896157000E+02 0. 9.
     -24    2    3    0    0    0  5.6685355909E+01 -3.7055694298E+01 -4.0357226722E+01  1.1262431268E+02  8.0431188000E+01 0. 9.
 1000022    1    4    0    0    0 -1.5983674114E+01  1.8252630803E+02 -3.2677838155E+02  3.9621525481E+02  1.2896157000E+02 0. 9.
      24    2    4    0    0    0 -3.4018153931E+01 -6.9336346365E+00 -2.6355490297E+02  2.7773309664E+02  8.0431188000E+01 0. 9.
       1    1    6    0  102    0  3.3538104730E+01  2.1148522552E+01 -2.8606343619E+01  4.8892701605E+01  3.3000000000E-01 0. 9.
      -2    1    6    0    0  102  2.3147251179E+01 -5.8204216850E+01 -1.1750883103E+01  6.3731611073E+01  3.3000000000E-01 0. 9.
      -1    1    8    0    0  103 -2.5769329756E+01  5.7379629497E+00 -2.6099228476E+02  2.6232434920E+02  3.3000000000E-01 0. 9.
       4    1    8    0  103    0 -8.2488241749E+00 -1.2671597586E+01 -2.5626182046E+00  1.5408747442E+01  1.5000000000E+00 0. 9.
</event>
<event>
    12   226  1.000000E+00  2.758703E+02  7.860984E-03  1.085478E-01
       2   -1    0    0  101    0  0.0000000000E+00  0.0000000000E+00  1.2824830143E+03  1.2824830143E+03  0.0000000000E+00 0. 9.
      -2   -1    0    0    0  101  0.0000000000E+00  0.0000000000E+00 -6.2117363940E+01  6.2117363940E+01  0.0000000000E+00 0. 9.
 1000024    2    1    2    0    0  5.3556534600E+01 -2.9259278475E+01  4.6806194244E+02  5.4331060507E+02  2.6903535800E+02 0. 9.
-1000024    2    1    2    0    0 -5.3556534600E+01  2.9259278475E+01  7.5230370797E+02  8.0128977322E+02  2.6903535800E+02 0. 9.
 1000022    1    3    0    0    0  1.8633470643E+01 -1.4991066217E+01  1.0069842253E+02  1.6535778521E+02  1.2896157000E+02 0. 9.
      24    2    3    0    0    0  3.4923063956E+01 -1.4268212259E+01  3.6736351991E+02  3.7795281986E+02  8.0431188000E+01 0. 9.
 1000022    1    4    0    0    0 -1.2561278253E+01  4.4639809908E+01  6.4868299283E+02  6.6300166672E+02  1.2896157000E+02 0. 9.
     -24    2    4    0    0    0 -4.0995256346E+01 -1.5380531432E+01  1.0362071514E+02  1.3828810650E+02  8.0431188000E+01 0. 9.
      -3    1    6    0    0  102 -2.2950573401E+01 -1.2138576565E+01  6.3295122406E+01  6.8414884205E+01  5.0000000000E-01 0. 9.
       4    1    6    0  102    0  5.7873637358E+01 -2.1296356939E+00  3.0406839750E+02  3.0953793566E+02  1.5000000000E+00 0. 9.
       3    1    8    0  103    0 -1.9512314226E+01 -1.0891210050E+01 -8.5869530866E+00  2.3944406990E+01  5.0000000000E-01 0. 9.
      -4    1    8    0    0  103 -2.1482942121E+01 -4.4893213817E+00  1.1220766823E+02  1.1434369951E+02  1.5000000000E+00 0. 9.
</event>
<event>
    18   244  1.000000E+00  8.677656E+02  7.964275E-03  9.424310E-02
      21   -1    0    0  101  102  0.0000000000E+00  0.0000000000E+00  7.5899578977E+02  7.5899578977E+02  0.0000000000E+00 0. 9.
      21   -1    0    0  103  104  0.0000000000E+00  0.0000000000E+00 -1.3728157010E+03  1.3728157010E+03  0.0000000000E+00 0. 9.
 1000021    2    1    2  103  102 -5.7912832963E+01 -3.7114359041E+01 -8.6821635023E+02  1.2275246516E+03  8.6503512500E+02 0. 9.
 1000021    2    1    2  101  104  5.7912832963E+01  3.7114359041E+01  2.5439643902E+02  9.0428683919E+02  8.6503512500E+02 0. 9.
-1000024    2    3    0    0    0  2.2648878058E+02 -2.6391790187E+01 -4.4998147587E+02  5.7171413031E+02  2.6903535800E+02 0. 9.
       6    1    3    0  103    0 -2.8323675854E+02  1.1469557577E+02 -2.0038463800E+02  4.0438889653E+02  1.7320000000E+02 0. 9.
      -5    1    3    0    0  102 -1.1648549978E+00 -1.2541814463E+02 -2.1785023636E+02  2.5142162471E+02  4.8000000000E+00 0. 9.
 1000023    2    4    0    0    0  7.4544277829E+01  9.6157520031E+01  2.3255896311E+01  2.9605281811E+02  2.6889276000E+02 0. 9.
       5    1    4    0  101    0  3.5132975583E+01  8.7139437115E+01 -1.6102473240E+02  1.8649292726E+02  4.8000000000E+00 0. 9.
      -5    1    4    0    0  104 -5.1764420449E+01 -1.4618259810E+02  3.9216527511E+02  4.2174109382E+02  4.8000000000E+00 0. 9.
 1000022    1    5    0    0    0  1.5777785209E+02  1.9876165311E+01 -3.9260088805E+02  4.4278149961E+02  1.2896157000E+02 0. 9.
     -24    2    5    0    0    0  6.8710928482E+01 -4.6267955498E+01 -5.7380587822E+01  1.2893263071E+02  8.0431188000E+01 0. 9.
 1000022    1    8    0    0    0  9.7367743238E+01  1.0900444021E+01 -1.7167549744E+01  1.6286530755E+02  1.2896157000E+02 0. 9.
      23    2    8    0    0    0 -2.2823465409E+01  8.5257076010E+01  4.0423446055E+01  1.3318751055E+02  9.1187600000E+01 0. 9.
       3    1   12    0  105    0  4.8423274667E+01 -5.4429341266E+01 -6.0335097196E+00  7.3102804048E+01  5.0000000000E-01 0. 9.
      -4    1   12    0    0  105  2.0287653814E+01  8.1613857682E+00 -5.1347078102E+01  5.5829826657E+01  1.5000000000E+00 0. 9.
      16    1   14    0    0    0  1.2360062486E+01  1.6643515646E+01  5.1286205124E+01  5.5317742124E+01  0.0000000000E+00 0. 9.
     -16    1   14    0    0    0 -3.5183527895E+01  6.8613560364E+01 -1.0862759068E+01  7.7869768431E+01  0.0000000000E+00 0. 9.
</event>
<event>
    15   275  1.000000E+00  1.160704E+03  7.990924E-03  9.119295E-02
       2   -1    0    0  101    0  0.0000000000E+00  0.0000000000E+00  3.2011785819E+03  3.2011785819E+03  0.0000000000E+00 0. 9.
      -1   -1    0    0    0  101  0.0000000000E+00  0.0000000000E+00 -4.3561456330E+02  4.3561456330E+02  0.0000000000E+00 0. 9.
 2000002    2    1    2  102    0  6.0322967226E+02 -1.6434616490E+01  1.7172928363E+03  2.0726612793E+03  9.9129912700E+02 0. 9.
-2000001    2    1    2    0  102 -6.0322967226E+02  1.6434616490E+01  1.0482711823E+03  1.5641318658E+03  9.9170554500E+02 0. 9.
 1000022    1    3    0    0    0  1.8746621031E+02  4.6723636611E+02  6.9707309785E+02  8.6947995498E+02  1.2896157000E+02 0. 9.
       2    1    3    0  102    0  4.1576346195E+02 -4.8367098260E+02  1.0202197384E+03  1.2031813244E+03  3.3000000000E-01 0. 9.
 1000021    2    4    0  103  102 -4.5075964827E+02  8.0689766123E+01  9.8026640145E+02  1.3852447741E+03  8.6503512500E+02 0. 9.
      -1    1    4    0    0  103 -1.5247002400E+02 -6.4255149633E+01  6.8004780819E+01  1.7888709173E+02  3.3000000000E-01 0. 9.
 1000024    2    7    0    0    0 -1.5633072360E+02 -6.7270492385E+01  5.6142156528E+02  6.4539818105E+02  2.6903535800E+02 0. 9.
      -2    1    7    0    0  102 -2.0512922476E+02  2.9116585985E+01  5.2019029656E+02  5.5993198512E+02  3.3000000000E-01 0. 9.
       1    1    7    0  103    0 -8.9299699904E+01  1.1884367252E+02 -1.0134546039E+02  1.7991460792E+02  3.3000000000E-01 0. 9.
 1000022    1    9    0    0    0 -6.8713227490E+01 -1.1824669588E+02  3.0745905646E+02  3.6036918106E+02  1.2896157000E+02 0. 9.
      24    2    9    0    0    0 -8.7617496111E+01  5.0976203499E+01  2.5396250882E+02  2.8502900000E+02  8.0431188000E+01 0. 9.
      -1    1   13    0    0  104 -2.6717991324E+01 -1.4418886742E+00  1.5623279607E+02  1.5850780918E+02  3.3000000000E-01 0. 9.
       2    1   13    0  104    0 -6.0899504787E+01  5.2418092173E+01  9.7729712749E+01  1.2652119081E+02  3.3000000000E-01 0. 9.
</event>
<event>
    17   273  1.000000E+00  1.276037E+03  7.999642E-03  9.024169E-02
       2   -1    0    0  101    0  0.0000000000E+00  0.0000000000E+00  1.2965996780E+03  1.2965996780E+03  0.0000000000E+00 0. 9.
       2   -1    0    0  102    0  0.0000000000E+00  0.0000000000E+00 -1.2812749701E+03  1.2812749701E+03  0.0000000000E+00 0. 9.
 1000002    2    1    2  102    0 -1.5262390932E+02 -7.8873183096E+02  1.8940593365E+02  1.2900974192E+03  9.9150632100E+02 0. 9.
 2000002    2    1    2  101    0  1.5262390932E+02  7.8873183096E+02 -1.7408122581E+02  1.2877772289E+03  9.9129912700E+02 0. 9.
 1000024    2    3    0    0    0  2.0441650007E+02 -5.1790367138E+02  4.5630025006E+02  7.6850521168E+02  2.6903535800E+02 0. 9.
       1    1    3    0  102    0 -3.5704040939E+02 -2.7082815957E+02 -2.6689431641E+02  5.2159220756E+02  3.3000000000E-01 0. 9.
 1000021    2    4    0  101  103  1.2304096574E+02  5.5459858539E+02 -9.6616719245E+01  1.0393936829E+03  8.6503512500E+02 0. 9.
       2    1    4    0  103    0  2.9582943579E+01  2.3413324556E+02 -7.7464506565E+01  2.4838354596E+02  3.3000000000E-01 0. 9.
 1000022    1    5    0    0    0  2.1875660600E+02 -3.6879798031E+02  3.4547293854E+02  5.6555197882E+02  1.2896157000E+02 0. 9.
      24    2    5    0    0    0 -1.4340105933E+01 -1.4910569107E+02  1.1082731152E+02  2.0295323286E+02  8.0431188000E+01 0. 9.
 1000023    2    7    0    0    0  2.0819140427E+02  2.3675924505E+02  1.8152788479E+02  4.5238732328E+02  2.6889276000E+02 0. 9.
       1    1    7    0  101    0 -1.3554640858E+02  3.4894413658E+02 -8.3492008311E+01  3.8354382238E+02  3.3000000000E-01 0. 9.
      -1    1    7    0    0  103  5.0395970053E+01 -3.1104796239E+01 -1.9465259572E+02  2.0346253726E+02  3.3000000000E-01 0. 9.
      -1    1   10    0    0  104 -3.1613344826E+01 -6.5968929081E+01  1.4560133214E+01  7.4588266868E+01  3.3000000000E-01 0. 9.
       2    1   10    0  104    0  1.7273238892E+01 -8.3136761988E+01  9.6267178306E+01  1.2836496599E+02  3.3000000000E-01 0. 9.
 1000022    1   11    0    0    0  1.3092931235E+02  1.3319691201E+02  1.3942912231E+02  2.6637467763E+02  1.2896157000E+02 0. 9.
      25    1   11    0    0    0  7.7262091924E+01  1.0356233304E+02  4.2098762480E+01  1.8601264565E+02  1.2701893900E+02 0. 9.
</event>
<event>
    12   230  1.000000E+00  2.790457E+02  7.862002E-03  1.083835E-01
       2   -1    0    0  101    0  0.0000000000E+00  0.0000000000E+00  9.8309744341E+02  9.8309744341E+02  0.0000000000E+00 0. 9.
      -1   -1    0    0    0  101  0.0000000000E+00  0.0000000000E+00 -7.9977489384E+01  7.9977489384E+01  0.0000000000E+00 0. 9.
 1000024    2    1    2    0    0 -6.3873373357E+01 -3.8013179369E+01  3.9943927015E+02  4.8729515083E+02  2.6903535800E+02 0. 9.
 1000023    2    1    2    0    0  6.3873373357E+01  3.8013179369E+01  5.0368068387E+02  5.7577978196E+02  2.6889276000E+02 0. 9.
 1000022    1    3    0    0    0 -8.6245790407E+01  1.2781696360E+01  1.3742342032E+02  2.0764872047E+02  1.2896157000E+02 0. 9.
      24    2    3    0    0    0  2.2372417051E+01 -5.0794875729E+01  2.6201584984E+02  2.7964643036E+02  8.0431188000E+01 0. 9.
 1000022    1    4    0    0    0 -1.8552602806E+01  6.0612512273E+01  1.9078758128E+02  2.3884945766E+02  1.2896157000E+02 0. 9.
      23    2    4    0    0    0  8.2425976162E+01 -2.2599332903E+01  3.1289310259E+02  3.3693032430E+02  9.1187600000E+01 0. 9.
      -1    1    6    0    0  102  9.2936305775E+00 -6.3292649008E+01  2.4968769685E+02  2.5775256710E+02  3.3000000000E-01 0. 9.
       2    1    6    0  102    0  1.3078786473E+01  1.2497773279E+01  1.2328152989E+01  2.1893863265E+01  3.3000000000E-01 0. 9.
      12    1    8    0    0    0 -1.4767889656E+01 -1.9335225761E+00  9.4667850013E+00  1.7647920351E+01  0.0000000000E+00 0. 9.
     -12    1    8    0    0    0  9.7193865818E+01 -2.0665810327E+01  3.0342631758E+02  3.1928240395E+02  0.0000000000E+00 0. 9.
</event>
<event>
    12   226  1.000000E+00  2.848698E+02  7.863841E-03  1.080882E-01
       3   -1    0    0  101    0  0.0000000000E+00  0.0000000000E+00  1.3512571710E+03  1.3512571710E+03  0.0000000000E+00 0. 9.
      -3   -1    0    0    0  101  0.0000000000E+00  0.0000000000E+00 -6.0779326612E+01  6.0779326612E+01  0.0000000000E+00 0. 9.
-1000024    2    1    2    0    0  8.1112330449E+01  4.6814228105E+01  7.2227083284E+02  7.7641867696E+02  2.6903535800E+02 0. 9.
 1000024    2    1    2    0    0 -8.1112330449E+01 -4.6814228105E+01  5.6820701152E+02  6.3561782063E+02  2.6903535800E+02 0. 9.
 1000022    1    3    0    0    0  8.9760254120E+01  7.6338037756E+01  6.1236886893E+02  6.3679754820E+02  1.2896157000E+02 0. 9.
     -24    2    3    0    0    0 -8.6479236712E+00 -2.9523809651E+01  1.0990196391E+02  1.3962112876E+02  8.0431188000E+01 0. 9.
 1000022    1    4    0    0    0  2.6690688417E+01 -3.8910112491E+00  3.6606114093E+02  3.8904932624E+02  1.2896157000E+02 0. 9.
      24    2    4    0    0    0 -1.0780301887E+02 -4.2923216856E+01  2.0214587059E+02  2.4656849438E+02  8.0431188000E+01 0. 9.
      13    1    6    0    0    0  9.9396259780E+00 -5.3962643470E+01  7.7761677536E+01  9.5171701215E+01  1.0566000000E-01 0. 9.
     -14    1    6    0    0    0 -1.8587549649E+01  2.4438833819E+01  3.2140286377E+01  4.4449427542E+01  0.0000000000E+00 0. 9.
      -1    1    8    0    0  102 -2.1770773411E+01 -4.7003322305E+01  5.1539524756E+01  7.3073322045E+01  3.3000000000E-01 0. 9.
       2    1    8    0  102    0 -8.6032245454E+01  4.0801054492E+00  1.5060634584E+02  1.7349517234E+02  3.3000000000E-01 0. 9.
</event>
<event>
    10   230  1.000000E+00  2.856668E+02  7.864090E-03  1.080484E-01
      -2   -1    0    0    0  101  0.0000000000E+00  0.0000000000E+00  6.2404470914E+02  6.2404470914E+02  0.0000000000E+00 0. 9.
       1   -1    0    0  101    0  0.0000000000E+00  0.0000000000E+00 -1.3098303946E+02  1.3098303946E+02  0.0000000000E+00 0. 9.
-1000024    2    1    2    0    0  9.2583792506E+01 -2.6307608105E+01  2.6186003818E+02  3.8757522151E+02  2.6903535800E+02 0. 9.
 1000023    2    1    2    0    0 -9.2583792506E+01  2.6307608105E+01  2.3120163149E+02  3.6745252709E+02  2.6889276000E+02 0. 9.
 1000022    1    3    0    0    0  1.3006508924E+01 -4.6339846183E+01  2.3049165285E+02  2.6846608573E+02  1.2896157000E+02 0. 9.
     -24    2    3    0    0    0  7.9577283582E+01  2.0032238078E+01  3.1368385333E+01  1.1910913578E+02  8.0431188000E+01 0. 9.
 1000022    1    4    0    0    0 -6.9712907729E+01 -2.0758121425E+01  1.2613704045E+02  1.9450560048E+02  1.2896157000E+02 0. 9.
      25    1    4    0    0    0 -2.2870884777E+01  4.7065729530E+01  1.0506459104E+02  1.7294692661E+02  1.2701893900E+02 0. 9.
      13    1    6    0    0    0  7.9201443124E+01  4.1697510766E+01  3.6788978910E+01  9.6772884272E+01  1.0566000000E-01 0. 9.
     -14    1    6    0    0    0  3.7584045785E-01 -2.1665272688E+01 -5.4205935766E+00  2.2336251508E+01  0.0000000000E+00 0. 9.
</event>
<event>
    12   230  1.000000E+00  2.979514E+02  7.867840E-03  1.074519E-01
      -1   -1    0    0    0  101  0.0000000000E+00  0.0000000000E+00  9.1459490595E+01  9.1459490595E+01  0.0000000000E+00 0. 9.
       2   -1    0    0  101    0  0.0000000000E+00  0.0000000000E+00 -9.7069334615E+02  9.7069334615E+02  0.0000000000E+00 0. 9.
 1000023    2    1    2    0    0  1.9514400798E+01 -1.2669879126E+02 -4.4311224373E+02  5.3393367797E+02  2.6889276000E+02 0. 9.
 1000024    2    1    2    0    0 -1.9514400798E+01  1.2669879126E+02 -4.3612161183E+02  5.2821915878E+02  2.6903535800E+02 0. 9.
 1000022    1    3    0    0    0  5.4546650132E+01 -1.3350986266E+01 -1.5517576761E+02  2.0943779808E+02  1.2896157000E+02 0. 9.
      23    2    3    0    0    0 -3.5032249334E+01 -1.1334780499E+02 -2.8793647612E+02  3.2449587988E+02  9.1187600000E+01 0. 9.
 1000022    1    4    0    0    0 -4.4748053597E+01 -3.4650521454E+00 -1.5049525893E+02  2.0321000070E+02  1.2896157000E+02 0. 9.
      24    2    4    0    0    0  2.5233652799E+01  1.3016384340E+02 -2.8562635290E+02  3.2500915808E+02  8.0431188000E+01 0. 9.
       5    1    6    0  102    0  1.1419148168E+01 -7.3391764397E+01 -2.2297093205E+02  2.3506557504E+02  4.8000000000E+00 0. 9.
      -5    1    6    0    0  102 -4.6451397502E+01 -3.9956040595E+01 -6.4965544063E+01  8.9430304848E+01  4.8000000000E+00 0. 9.
      -3    1    8    0    0  103 -2.7360949362E+01  6.8042806008E+01 -1.4593191110E+02  1.6332427155E+02  5.0000000000E-01 0. 9.
       4    1    8    0  103    0  5.2594602161E+01  6.2121037395E+01 -1.3969444180E+02  1.6168488653E+02  1.5000000000E+00 0. 9.
</event>
<event>
    12   226  1.000000E+00  2.840107E+02  7.863572E-03  1.081313E-01
      -2   -1    0    0    0  101  0.0000000000E+00  0.0000000000E+00  1.3370202789E+02  1.3370202789E+02  0.0000000000E+00 0. 9.
       2   -1    0    0  101    0  0.0000000000E+00  0.0000000000E+00 -6.1832184514E+02  6.1832184514E+02  0.0000000000E+00 0. 9.
-1000024    2    1    2    0    0  8.1195125574E+01 -4.1102122052E+01 -3.0092328009E+02  4.1378361157E+02  2.6903535800E+02 0. 9.
 1000024    2    1    2    0    0 -8.1195125574E+01  4.1102122052E+01 -1.8369653716E+02  3.3824026146E+02  2.6903535800E+02 0. 9.
 1000022    1    3    0    0    0  1.9243778737E+01 -8.2873400346E+01 -9.7680054484E+01  1.8278622236E+02  1.2896157000E+02 0. 9.
     -24    2    3    0    0    0  6.1951346837E+01  4.1771278294E+01 -2.0324322560E+02  2.3099738921E+02  8.0431188000E+01 0. 9.
 1000022    1    4    0    0    0 -5.6417841257E+01 -5.9186765466E+01 -1.0768893836E+02  1.8685299035E+02  1.2896157000E+02 0. 9.
      24    2    4    0    0    0 -2.4777284317E+01  1.0028888752E+02 -7.6007598795E+01  1.5138727111E+02  8.0431188000E+01 0. 9.
       1    1    6    0  102    0  7.5170291079E+01  5.2606896421E+01 -1.5910816524E+02  1.8366702305E+02  3.3000000000E-01 0. 9.
      -2    1    6    0    0  102 -1.3218944242E+01 -1.0835618127E+01 -4.4135060364E+01  4.7330366156E+01  3.3000000000E-01 0. 9.
     -13    1    8    0    0    0 -3.2887791241E+01  6.8788377647E+01 -8.8255677191E+01  1.1662985652E+02  1.0566000000E-01 0. 9.
      14    1    8    0    0    0  8.1105069234E+00  3.1500509871E+01  1.2248078396E+01  3.4757414592E+01  0.0000000000E+00 0. 9.
</event>
<event>
    12   226  1.000000E+00  3.042170E+02  7.869695E-03  1.071596E-01
       1   -1    0    0  101    0  0.0000000000E+00  0.0000000000E+00  2.0420819421E+02  2.0420819421E+02  0.0000000000E+00 0. 9.
      -1   -1    0    0    0  101  0.0000000000E+00  0.0000000000E+00 -5.2131666521E+02  5.2131666521E+02  0.0000000000E+00 0. 9.
-1000024    2    1    2    0    0  8.8920318737E+01  1.1072989502E+02 -2.7429190158E+01  3.0545100599E+02  2.6903535800E+02 0. 9.
 1000024    2    1    2    0    0 -8.8920318737E+01 -1.1072989502E+02 -2.8967928084E+02  4.2007385343E+02  2.6903535800E+02 0. 9.
 1000022    1    3    0    0    0  1.3675014997E+01  6.1899491990E+01 -9.0135706353E+01  1.6962925821E+02  1.2896157000E+02 0. 9.
     -24    2    3    0    0    0  7.5245303740E+01  4.8830403026E+01  6.2706516195E+01  1.3582174778E+02  8.0431188000E+01 0. 9.
 1000022    1    4    0    0    0 -5.3376247781E+01 -1.2542910301E+02 -2.6994706091E+02  3.2876129021E+02  1.2896157000E+02 0. 9.
      24    2    4    0    0    0 -3.5544070956E+01  1.4699207989E+01 -1.9732219925E+01  9.1312563221E+01  8.0431188000E+01 0. 9.
      11    1    6    0    0    0  6.7160281644E+01  1.7300371371E+01  4.9558731248E+00  6.9529612100E+01  5.1000000000E-04 0. 9.
     -12    1    6    0    0    0  8.0850220954E+00  3.1530031655E+01  5.7750643070E+01  6.6292135683E+01  0.0000000000E+00 0. 9.
     -11    1    8    0    0    0 -4.7481896881E+01 -1.3008551041E+01  8.5388578876E+00  4.9966639129E+01  5.1000000000E-04 0. 9.
      12    1    8    0    0    0  1.1937825924E+01  2.7707759031E+01 -2.8271077813E+01  4.1345924091E+01  0.0000000000E+00 0. 9.
</event>
<event>
    14   289  1.000000E+00  1.028967E+03  7.979864E-03  9.243201E-02
      21   -1    0    0  101  102  0.0000000000E+00  0.0000000000E+00  1.0826222556E+03  1.0826222556E+03  0.0000000000E+00 0. 9.
      21   -1    0    0  102  103  0.0000000000E+00  0.0000000000E+00 -1.0606625808E+03  1.0606625808E+03  0.0000000000E+00 0. 9.
-1000005    2    1    2    0  103 -3.5774771845E+02  1.0180236250E+02 -2.8824159295E+02  1.0685766543E+03  9.5938819000E+02 0. 9.
 1000005    2    1    2  101    0  3.5774771845E+02 -1.0180236250E+02  3.1020126777E+02  1.0747081821E+03  9.5938819000E+02 0. 9.
 1000024    2    3    0    0    0 -6.2198179090E+02  1.8458363502E+02 -1.9698557694E+02  7.2946268438E+02  2.6903535800E+02 0. 9.
      -6    1    3    0    0  103  2.6423407245E+02 -8.2781272517E+01 -9.1256016006E+01  3.3911396990E+02  1.7320000000E+02 0. 9.
 1000023    2    4    0    0    0  4.1500494087E+02  3.0326361170E+02  3.2574872543E+02  6.6529201681E+02  2.6889276000E+02 0. 9.
       5    1    4    0  101    0 -5.7257222417E+01 -4.0506597420E+02 -1.5547457655E+01  4.0941616531E+02  4.8000000000E+00 0. 9.
 1000022    1    5    0    0    0 -3.8472618317E+02  1.4140293872E+02 -2.0287399728E+02  4.7518204133E+02  1.2896157000E+02 0. 9.
      24    2    5    0    0    0 -2.3725560774E+02  4.3180696301E+01  5.8884203402E+00  2.5428064305E+02  8.0431188000E+01 0. 9.
 1000022    1    7    0    0    0  1.4942759833E+02  1.4763278329E+02  1.2357787488E+02  2.7572925768E+02  1.2896157000E+02 0. 9.
      25    1    7    0    0    0  2.6557734254E+02  1.5563082842E+02  2.0217085054E+02  3.8956275913E+02  1.2701893900E+02 0. 9.
      -3    1   10    0    0  104 -1.4093685641E+02 -1.4904790038E+01  3.6560417011E+00  1.4177082529E+02  5.0000000000E-01 0. 9.
       4    1   10    0  104    0 -9.6318751322E+01  5.8085486339E+01  2.2323786391E+00  1.1250981777E+02  1.5000000000E+00 0. 9.
</event>
<event>
    12   230  1.000000E+00  2.945271E+02  7.866810E-03  1.076150E-01
       2   -1    0    0  101    0  0.0000000000E+00  0.0000000000E+00  9.7794293633E+02  9.7794293633E+02  0.0000000000E+00 0. 9.
      -1   -1    0    0    0  101  0.0000000000E+00  0.0000000000E+00 -1.0780075672E+02  1.0780075672E+02  0.0000000000E+00 0. 9.
 1000024    2    1    2    0    0 -1.1287069490E+02 -4.0801155789E+01  2.0665306368E+02  3.5984724629E+02  2.6903535800E+02 0. 9.
 1000023    2    1    2    0    0  1.1287069490E+02  4.0801155789E+01  6.6348911593E+02  7.2589644676E+02  2.6889276000E+02 0. 9.
 1000022    1    3    0    0    0 -8.0284710176E+00 -2.9903402540E+01  2.5015414591E+01  1.3496491149E+02  1.2896157000E+02 0. 9.
      24    2    3    0    0    0 -1.0484222388E+02 -1.0897753249E+01  1.8163764909E+02  2.2488233480E+02  8.0431188000E+01 0. 9.
 1000022    1    4    0    0    0  8.8678317565E+00  9.6928229664E+00  1.7845425623E+02  2.2056653726E+02  1.2896157000E+02 0. 9.
      23    2    4    0    0    0  1.0400286315E+02  3.1108332822E+01  4.8503485970E+02  5.0532990950E+02  9.1187600000E+01 0. 9.
     -15    1    6    0    0    0 -1.0343001324E+02 -1.8768175909E+01  1.0767766398E+02  1.5049135894E+02  1.7770000000E+00 0. 9.
      16    1    6    0    0    0 -1.4122106409E+00  7.8704226603E+00  7.3959985111E+01  7.4390975860E+01  0.0000000000E+00 0. 9.
       1    1    8    0  102    0  7.9285482776E+01  4.4842880366E+01  2.1076873370E+02  2.2960975524E+02  3.3000000000E-01 0. 9.
      -1    1    8    0    0  102  2.4717380370E+01 -1.3734547544E+01  2.7426612601E+02  2.7572015426E+02  3.3000000000E-01 0. 9.
</event>
<event>
    12   230  1.000000E+00  4.184388E+02  7.898222E-03  1.028715E-01
      -1   -1    0    0    0  101  0.0000000000E+00  0.0000000000E+00  1.3451895615E+02  1.3451895615E+02  0.0000000000E+00 0. 9.
       2   -1    0    0  101    0  0.0000000000E+00  0.0000000000E+00 -1.3845178616E+03  1.3845178616E+03  0.0000000000E+00 0. 9.
 1000023    2    1    2    0    0  2.9936217488E+02  1.1459338698E+02 -4.3907307456E+02  6.0649636213E+02  2.6889276000E+02 0. 9.
 1000024    2    1    2    0    0 -2.9936217488E+02 -1.1459338698E+02 -8.1092583094E+02  9.1254045567E+02  2.6903535800E+02 0. 9.
 1000022    1    3    0    0    0  1.5452557206E+02  2.3665139710E+01 -1.2706649444E+02  2.3919693101E+02  1.2896157000E+02 0. 9.
      23    2    3    0    0    0  1.4483660283E+02  9.0928247271E+01 -3.1200658012E+02  3.6729943112E+02  9.1187600000E+01 0. 9.
 1000022    1    4    0    0    0 -8.4021385544E+01 -2.6882728925E+01 -1.9904066042E+02  2.5304257622E+02  1.2896157000E+02 0. 9.
      24    2    4    0    0    0 -2.1534078934E+02 -8.7710658056E+01 -6.1188517052E+02  6.5949787945E+02  8.0431188000E+01 0. 9.
      14    1    6    0    0    0  6.4387527506E+01  9.2980969427E+01 -1.7336705748E+02  2.0699601685E+02  0.0000000000E+00 0. 9.
     -14    1    6    0    0    0  8.0449075320E+01 -2.0527221555E+00 -1.3863952264E+02  1.6030341427E+02  0.0000000000E+00 0. 9.
      -1    1    8    0    0  102 -1.9379203592E+02 -5.6838551943E+01 -4.4916479352E+02  4.9247852218E+02  3.3000000000E-01 0. 9.
       2    1    8    0  102    0 -2.1548753415E+01 -3.0872106113E+01 -1.6272037700E+02  1.6701935726E+02  3.3000000000E-01 0. 9.
</event>
<event>
    12   226  1.000000E+00  2.830444E+02  7.863269E-03  1.081799E-01
       2   -1    0    0  101    0  0.0000000000E+00  0.0000000000E+00  1.2533996701E+03  1.2533996701E+03  0.0000000000E+00 0. 9.
      -2   -1    0    0    0  101  0.0000000000E+00  0.0000000000E+00 -8.6008128059E+01  8.6008128059E+01  0.0000000000E+00 0. 9.
 1000024    2    1    2    0    0  1.7728208393E+01  8.6138217717E+01  9.2310030683E+02  9.6551969542E+02  2.6903535800E+02 0. 9.
-1000024    2    1    2    0    0 -1.7728208393E+01 -8.6138217717E+01  2.4429123525E+02  3.7388810278E+02  2.6903535800E+02 0. 9.
 1000022    1    3    0    0    0  6.1257466679E+01 -8.0235905277E+00  5.9931539032E+02  6.1613868474E+02  1.2896157000E+02 0. 9.
      24    2    3    0    0    0 -4.3529258286E+01  9.4161808245E+01  3.2378491651E+02  3.4938101068E+02  8.0431188000E+01 0. 9.
 1000022    1    4    0    0    0 -4.7832271451E+01  2.1383956185E+01  1.6184052579E+02  2.1346812900E+02  1.2896157000E+02 0. 9.
     -24    2    4    0    0    0  3.0104063057E+01 -1.0752217390E+02  8.2450709465E+01  1.6041997378E+02  8.0431188000E+01 0. 9.
      -1    1    6    0    0  102 -3.6362028533E+00  8.4395644004E+01  2.6121800919E+02  2.7453743629E+02  3.3000000000E-01 0. 9.
       2    1    6    0  102    0 -3.9893055433E+01  9.7661642409E+00  6.2566907320E+01  7.4843574389E+01  3.3000000000E-01 0. 9.
       3    1    8    0  103    0  3.1556738065E+01 -4.2707864555E+01  7.9372697164E+01  9.5499028620E+01  5.0000000000E-01 0. 9.
      -4    1    8    0    0  103 -1.4526750075E+00 -6.4814309347E+01  3.0780123011E+00  6.4920945161E+01  1.5000000000E+00 0. 9.
</event>
<event>
    10   230  1.000000E+00  3.000751E+02  7.868473E-03  1.073520E-01
      -2   -1    0    0    0  101  0.0000000000E+00  0.0000000000E+00  8.3232264915E+01  8.3232264915E+01  0.0000000000E+00 0. 9.
       1   -1    0    0  101    0  0.0000000000E+00  0.0000000000E+00 -1.1289000946E+03  1.1289000946E+03  0.0000000000E+00 0. 9.
-1000024    2    1    2    0    0  1.0545241899E+02  8.1136838920E+01 -3.9921511198E+02  4.9945583267E+02  2.6903535800E+02 0. 9.
 1000023    2    1    2    0    0 -1.0545241899E+02 -8.1136838920E+01 -6.4645271766E+02  7.1267652680E+02  2.6889276000E+02 0. 9.
 1000022    1    3    0    0    0  3.8205189000E+01  1.2757349577E+02 -2.5274526085E+02  3.1344199895E+02  1.2896157000E+02 0. 9.
     -24    2    3    0    0    0  6.7247229994E+01 -4.6436656848E+01 -1.4646985113E+02  1.8601383372E+02  8.0431188000E+01 0. 9.
 1000022    1    4    0    0    0 -6.7468608898E+01 -1.2111190615E+01 -3.8104005577E+02  4.0807022038E+02  1.2896157000E+02 0. 9.
      25    1    4    0    0    0 -3.7983810095E+01 -6.9025648305E+01 -2.6541266189E+02  3.0460630642E+02  1.2701893900E+02 0. 9.
       3    1    6    0  102    0  6.5423085915E-01 -1.6071743627E+01 -9.5418775196E+01  9.6766324830E+01  5.0000000000E-01 0. 9.
      -4    1    6    0    0  102  6.6592999134E+01 -3.0364913221E+01 -5.1051075937E+01  8.9247508889E+01  1.5000000000E+00 0. 9.
</event>
<event>
    10   230  1.000000E+00  5.183182E+02  7.917493E-03  1.001798E-01
       1   -1    0    0  101    0  0.0000000000E+00  0.0000000000E+00  7.3569272223E+02  7.3569272223E+02  0.0000000000E+00 0. 9.
      -2   -1    0    0    0  101  0.0000000000E+00  0.0000000000E+00 -3.6770717825E+02  3.6770717825E+02  0.0000000000E+00 0. 9.
 1000023    2    1    2    0    0 -1.2786722771E+02 -4.2421935450E+02  2.2979697011E+02  5.6694096034E+02  2.6889276000E+02 0. 9.
-1000024    2    1    2    0    0  1.2786722771E+02  4.2421935450E+02  1.3818857387E+02  5.3645894014E+02  2.6903535800E+02 0. 9.
 1000022    1    3    0    0    0 -1.0903877845E+02 -2.5164938154E+02  1.2850274125E+02  3.2918217978E+02  1.2896157000E+02 0. 9.
      25    1    3    0    0    0 -1.8828449257E+01 -1.7256997296E+02  1.0129422885E+02  2.3775878056E+02  1.2701893900E+02 0. 9.
 1000022    1    4    0    0    0  5.5156073720E+01  1.8548867075E+02  1.4521517134E+02  2.7416559224E+02  1.2896157000E+02 0. 9.
     -24    2    4    0    0    0  7.2711153991E+01  2.3873068375E+02 -7.0265974633E+00  2.6229334790E+02  8.0431188000E+01 0. 9.
      13    1    8    0    0    0 -5.7737025429E+00  6.2110112930E+01 -2.7039416892E+01  6.7986344210E+01  1.0566000000E-01 0. 9.
     -14    1    8    0    0    0  7.8484856534E+01  1.7662057082E+02  2.0012819429E+01  1.9430700369E+02  0.0000000000E+00 0. 9.
</event>
<event>
    17   258  1.000000E+00  1.031681E+03  7.980106E-03  9.240455E-02
       2   -1    0    0  101    0  0.0000000000E+00  0.0000000000E+00  2.1011432822E+03  2.1011432822E+03  0.0000000000E+00 0. 9.
      21   -1    0    0  102  101  0.0000000000E+00  0.0000000000E+00 -5.7703539707E+02  5.7703539707E+02  0.0000000000E+00 0. 9.
 1000002    2    1    2  103    0 -3.2994159173E+02  2.9969969348E+02  1.2713798246E+03  1.6727739845E+03  9.9150632100E+02 0. 9.
 1000021    2    1    2  102  103  3.2994159173E+02 -2.9969969348E+02  2.5272806053E+02  1.0054046948E+03  8.6503512500E+02 0. 9.
 1000024    2    3    0    0    0 -1.4635036653E+02 -2.6959732751E+02  8.4450961612E+02  9.3791133076E+02  2.6903535800E+02 0. 9.
       1    1    3    0  103    0 -1.8359122519E+02  5.6929702099E+02  4.2687020848E+02  7.3486265374E+02  3.3000000000E-01 0. 9.
-1000024    2    4    0    0    0 -4.0514241895E+01 -2.0612308844E+02  2.1289851548E+02  4.0228588483E+02  2.6903535800E+02 0. 9.
       2    1    4    0  102    0  2.6337560438E+02  1.1864550257E+02 -1.2407099725E+02  3.1438381880E+02  3.3000000000E-01 0. 9.
      -1    1    4    0    0  103  1.0708022924E+02 -2.1222210761E+02  1.6390054230E+02  2.8873499116E+02  3.3000000000E-01 0. 9.
 1000022    1    5    0    0    0 -7.9612578061E+01 -2.5122903105E+02  5.2742516090E+02  6.0354169327E+02  1.2896157000E+02 0. 9.
      24    2    5    0    0    0 -6.6737788474E+01 -1.8368296452E+01  3.1708445522E+02  3.3436963748E+02  8.0431188000E+01 0. 9.
 1000022    1    7    0    0    0 -3.3548949342E+00 -1.4331707342E+01  7.3342885476E+01  1.4908694960E+02  1.2896157000E+02 0. 9.
     -24    2    7    0    0    0 -3.7159346960E+01 -1.9179138110E+02  1.3955563000E+02  2.5319893522E+02  8.0431188000E+01 0. 9.
      -3    1   11    0    0  104 -3.3543095400E+01 -1.1067047166E+01  2.8635246877E+02  2.8852314492E+02  5.0000000000E-01 0. 9.
       4    1   11    0  104    0 -3.3194693074E+01 -7.3012492861E+00  3.0731986449E+01  4.5846492565E+01  1.5000000000E+00 0. 9.
       3    1   13    0  105    0  4.0901027182E+00 -6.7553922587E+01  9.1352722724E+01  1.1369182621E+02  5.0000000000E-01 0. 9.
      -4    1   13    0    0  105 -4.1249449679E+01 -1.2423745851E+02  4.8202907275E+01  1.3950710901E+02  1.5000000000E+00 0. 9.
</event>
<event>
    20   259  1.000000E+00  1.140153E+03  7.989282E-03  9.137458E-02
      -2   -1    0    0    0  101  0.0000000000E+00  0.0000000000E+00  1.3580060541E+03  1.3580060541E+03  0.0000000000E+00 0. 9.
      21   -1    0    0  101  102  0.0000000000E+00  0.0000000000E+00 -9.5537260609E+02  9.5537260609E+02  0.0000000000E+00 0. 9.
-2000002    2    1    2    0  103 -2.4192981112E+02  6.1313899165E+02  2.2051296311E+02  1.2106896310E+03  9.9129912700E+02 0. 9.
 1000021    2    1    2  103  102  2.4192981112E+02 -6.1313899165E+02  1.8212048493E+02  1.1026890292E+03  8.6503512500E+02 0. 9.
 1000021    2    3    0  104  103 -2.1203783095E+02  6.6741540257E+02  1.6058992541E+02  1.1244902192E+03  8.6503512500E+02 0. 9.
      -2    1    3    0    0  104 -2.9891980173E+01 -5.4276410918E+01  5.9923037702E+01  8.6199411878E+01  3.3000000000E-01 0. 9.
-1000024    2    4    0    0    0  3.8540337097E+02 -1.5548388467E+02  2.0948279286E+01  4.9550968810E+02  2.6903535800E+02 0. 9.
       6    1    4    0  103    0 -6.6637466821E+01 -4.6406898090E+02  1.7327796744E+02  5.2898399316E+02  1.7320000000E+02 0. 9.
      -5    1    4    0    0  102 -7.6836093023E+01  6.4138739209E+00 -1.2105761792E+01  7.8195347933E+01  4.8000000000E+00 0. 9.
 1000024    2    5    0    0    0  1.1589752531E+01  4.6538185090E+02  1.2403693118E+02  5.5179685906E+02  2.6903535800E+02 0. 9.
      -6    1    5    0    0  103  3.2241437368E+01  1.0215535964E+01 -1.2317101175E+02  2.1520503153E+02  1.7320000000E+02 0. 9.
       5    1    5    0  104    0 -2.5586902085E+02  1.9181801570E+02  1.5972400598E+02  3.5748832857E+02  4.8000000000E+00 0. 9.
 1000022    1    7    0    0    0  2.8908818866E+02 -1.8363537927E+02  2.5334929809E+01  3.6683358427E+02  1.2896157000E+02 0. 9.
     -24    2    7    0    0    0  9.6315182311E+01  2.8151494606E+01 -4.3866505229E+00  1.2867610383E+02  8.0431188000E+01 0. 9.
 1000022    1   10    0    0    0 -4.9258360553E+01  3.5654513694E+02  1.2848426605E+02  4.0334862578E+02  1.2896157000E+02 0. 9.
      24    2   10    0    0    0  6.0848113083E+01  1.0883671397E+02 -4.4473348719E+00  1.4844823328E+02  8.0431188000E+01 0. 9.
       1    1   14    0  105    0  4.5529198139E+01 -1.7734621258E+01  2.4167946855E+01  5.4512596981E+01  3.3000000000E-01 0. 9.
      -2    1   14    0    0  105  5.0785984171E+01  4.5886115864E+01 -2.8554597378E+01  7.4163506854E+01  3.3000000000E-01 0. 9.
     -13    1   16    0    0    0  5.4195219177E+01  2.2635728051E+01  1.3225354575E+01  6.0203148869E+01  1.0566000000E-01 0. 9.
      14    1   16    0    0    0  6.6528939065E+00  8.6200985916E+01 -1.7672689447E+01  8.8245084410E+01  0.0000000000E+00 0. 9.
</event>
<event>
    10   230  1.000000E+00  2.701795E+02  7.859130E-03  1.088483E-01
       1   -1    0    0  101    0  0.0000000000E+00  0.0000000000E+00  1.6415762703E+03  1.6415762703E+03  0.0000000000E+00 0. 9.
      -2   -1    0    0    0  101  0.0000000000E+00  0.0000000000E+00 -4.5878378988E+01  4.5878378988E+01  0.0000000000E+00 0. 9.
 1000023    2    1    2    0    0 -2.5349743690E+01  3.5633107532E+00  9.4559960563E+02  9.8342119015E+02  2.6889276000E+02 0. 9.
-1000024    2    1    2    0    0  2.5349743690E+01 -3.5633107532E+00  6.5009828572E+02  7.0403345917E+02  2.6903535800E+02 0. 9.
 1000022    1    3    0    0    0 -5.7158257025E+00 -2.9688252299E+01  5.6543525709E+02  5.8074278256E+02  1.2896157000E+02 0. 9.
      25    1    3    0    0    0 -1.9633917987E+01  3.3251563052E+01  3.8016434854E+02  4.0267840760E+02  1.2701893900E+02 0. 9.
 1000022    1    4    0    0    0  3.7967629465E+01 -8.1274028394E+01  3.5521620347E+02  3.8840268578E+02  1.2896157000E+02 0. 9.
     -24    2    4    0    0    0 -1.2617885775E+01  7.7710717640E+01  2.9488208225E+02  3.1563077339E+02  8.0431188000E+01 0. 9.
      15    1    8    0    0    0 -4.3187974913E+01  3.3233378541E+01  1.0615700164E+02  1.1934037604E+02  1.7770000000E+00 0. 9.
     -16    1    8    0    0    0  3.0570089138E+01  4.4477339099E+01  1.8872508061E+02  1.9629039736E+02  0.0000000000E+00 0. 9.
</event>
<event>
    20   259  1.000000E+00  1.049732E+03  7.981696E-03  9.222419E-02
      21   -1    0    0  101  102  0.0000000000E+00  0.0000000000E+00  9.0667644961E+02  9.0667644961E+02  0.0000000000E+00 0. 9.
       1   -1    0    0  102    0  0.0000000000E+00  0.0000000000E+00 -1.2926147392E+03  1.2926147392E+03  0.0000000000E+00 0. 9.
 1000021    2    1    2  101  103  1.7263799267E+02 -4.5414823190E+02  9.1148341168E+01  9.9631735940E+02  8.6503512500E+02 0. 9.
 2000001    2    1    2  103    0 -1.7263799267E+02  4.5414823190E+02 -4.7708663077E+02  1.2029738294E+03  9.9170554500E+02 0. 9.
 1000024    2    3    0    0    0 -1.6364739431E+02 -1.5857406378E+02  2.6310068368E+02  4.3991839808E+02  2.6903535800E+02 0. 9.
      -6    1    3    0    0  103  1.3234515296E+02 -2.2251438878E+02 -1.1805660069E+02  3.3311183361E+02  1.7320000000E+02 0. 9.
       5    1    3    0  101    0  2.0394023402E+02 -7.3059779343E+01 -5.3895741819E+01  2.2328712770E+02  4.8000000000E+00 0. 9.
 1000021    2    4    0  103  104 -2.2429790721E+02  5.0138440083E+02 -4.0310660136E+02  1.1011251374E+03  8.6503512500E+02 0. 9.
       1    1    4    0  104    0  5.1659914537E+01 -4.7236168931E+01 -7.3980029415E+01  1.0184869208E+02  3.3000000000E-01 0. 9.
 1000022    1    5    0    0    0 -6.3624266104E+00 -1.0922619033E+02  1.2336325817E+02  2.0933327764E+02  1.2896157000E+02 0. 9.
      24    2    5    0    0    0 -1.5728496770E+02 -4.9347873451E+01  1.3973742551E+02  2.3058512044E+02  8.0431188000E+01 0. 9.
 1000024    2    8    0    0    0 -2.5192539637E+02  6.0735882936E+01 -1.1189401623E+02  3.8994300549E+02  2.6903535800E+02 0. 9.
      -6    1    8    0    0  104  1.3509735463E+00 -1.5100796955E+01 -1.5972294981E+02  2.3609218516E+02  1.7320000000E+02 0. 9.
       5    1    8    0  103    0  2.6276515610E+01  4.5574931485E+02 -1.3148963531E+02  4.7508994670E+02  4.8000000000E+00 0. 9.
     -15    1   11    0    0    0 -1.4635622120E+02 -6.6560365094E+01  1.3425828845E+02  2.0947284175E+02  1.7770000000E+00 0. 9.
      16    1   11    0    0    0 -1.0928746501E+01  1.7212491643E+01  5.4791370624E+00  2.1112278693E+01  0.0000000000E+00 0. 9.
 1000022    1   12    0    0    0 -2.5515220602E+02  4.4314329499E+01 -1.0391856892E+02  3.0740293352E+02  1.2896157000E+02 0. 9.
      24    2   12    0    0    0  3.2268096548E+00  1.6421553437E+01 -7.9754473183E+00  8.2540071970E+01  8.0431188000E+01 0. 9.
      -1    1   18    0    0  105  3.7653790341E+01  4.5738949286E+00  1.3506814689E+01  4.0265014404E+01  3.3000000000E-01 0. 9.
       2    1   18    0  105    0 -3.4426980687E+01  1.1847658508E+01 -2.1482262007E+01  4.2275057567E+01  3.3000000000E-01 0. 9.
</event>
<event>
    15   258  1.000000E+00  9.926646E+02  7.976573E-03  9.280797E-02
      21   -1    0    0  101  102  0.0000000000E+00  0.0000000000E+00  7.1491041284E+02  7.1491041284E+02  0.0000000000E+00 0. 9.
       2   -1    0    0  102    0  0.0000000000E+00  0.0000000000E+00 -1.4312150972E+03  1.4312150972E+03  0.0000000000E+00 0. 9.
 1000021    2    1    2  101  103 -1.1548004685E+02 -3.2613192965E+02 -5.5286603689E+02  1.0833486507E+03  8.6503512500E+02 0. 9.
 1000002    2    1    2  103    0  1.1548004685E+02  3.2613192965E+02 -1.6343864751E+02  1.0627768594E+03  9.9150632100E+02 0. 9.
 1000024    2    3    0    0    0  1.5607205129E+02 -2.4068591591E+02 -1.1624764171E+02  4.1009966272E+02  2.6903535800E+02 0. 9.
      -2    1    3    0    0  103 -3.4970504263E+02 -8.3171335481E+01 -1.7422908748E+02  3.9945834791E+02  3.3000000000E-01 0. 9.
       1    1    3    0  101    0  7.8152944495E+01 -2.2746782611E+00 -2.6238930771E+02  2.7379064008E+02  3.3000000000E-01 0. 9.
 1000023    2    4    0    0    0  1.8955034722E+02 -1.1906807937E+02  2.6622245906E+02  4.3964105330E+02  2.6889276000E+02 0. 9.
       2    1    4    0  103    0 -7.4070300375E+01  4.4520000902E+02 -4.2966110657E+02  6.2313580609E+02  3.3000000000E-01 0. 9.
 1000022    1    5    0    0    0  1.4489402097E+02 -2.4425861920E+02 -8.8720520696E+01  3.2428223463E+02  1.2896157000E+02 0. 9.
      24    2    5    0    0    0  1.1178030326E+01  3.5727032956E+00 -2.7527121010E+01  8.5817428096E+01  8.0431188000E+01 0. 9.
 1000022    1    8    0    0    0  1.4327706514E+02 -8.0259145708E+01  1.4848573499E+02  2.5622050639E+02  1.2896157000E+02 0. 9.
      25    1    8    0    0    0  4.6273282079E+01 -3.8808933662E+01  1.1773672407E+02  1.8342054690E+02  1.2701893900E+02 0. 9.
      -3    1   11    0    0  104  4.2621732920E+01  7.7283345764E+00 -3.1855245330E+01  5.3771236991E+01  5.0000000000E-01 0. 9.
       4    1   11    0  104    0 -3.1443702595E+01 -4.1556312808E+00  4.3281243205E+00  3.2046191105E+01  1.5000000000E+00 0. 9.
</event>
<event>
    12   248  1.000000E+00  7.303423E+02  7.948562E-03  9.614936E-02
       2   -1    0    0  101    0  0.0000000000E+00  0.0000000000E+00  1.5529224189E+03  1.5529224189E+03  0.0000000000E+00 0. 9.
      21   -1    0    0  102  101  0.0000000000E+00  0.0000000000E+00 -3.2238679998E+02  3.2238679998E+02  0.0000000000E+00 0. 9.
 1000002    2    1    2  102    0  5.7560523643E+01  4.8913628887E+01  5.4248646042E+02  1.1327321401E+03  9.9150632100E+02 0. 9.
 1000023    2    1    2    0    0 -5.7560523643E+01 -4.8913628887E+01  6.8804915852E+02  7.4257707876E+02  2.6889276000E+02 0. 9.
 1000024    2    3    0    0    0 -1.3802461880E+02 -3.3276551872E+02  1.0961669151E+01  4.4975978909E+02  2.6903535800E+02 0. 9.
       1    1    3    0  102    0  1.9558514244E+02  3.8167914760E+02  5.3152479127E+02  6.8297235104E+02  3.3000000000E-01 0. 9.
 1000022    1    4    0    0    0 -2.8653231846E+01 -3.0130899135E+01  2.4012681258E+02  2.7571879050E+02  1.2896157000E+02 0. 9.
      25    1    4    0    0    0 -2.8907291797E+01 -1.8782729752E+01  4.4792234595E+02  4.6685828826E+02  1.2701893900E+02 0. 9.
 1000022    1    5    0    0    0 -4.0669710921E+01 -6.2002739737E+01 -1.6818872636E+01  1.4970746853E+02  1.2896157000E+02 0. 9.
      24    2    5    0    0    0 -9.7354907875E+01 -2.7076277898E+02  2.7780541787E+01  3.0005232056E+02  8.0431188000E+01 0. 9.
      -3    1   10    0    0  103  1.0705985264E+01 -5.3312936589E+00 -1.0520796310E+00  1.2016558746E+01  5.0000000000E-01 0. 9.
       4    1   10    0  103    0 -1.0806089314E+02 -2.6543148532E+02  2.8832621418E+01  2.8803576181E+02  1.5000000000E+00 0. 9.
</event>
<event>
    10   230  1.000000E+00  3.101399E+02  7.871415E-03  1.068901E-01
      -2   -1    0    0    0  101  0.0000000000E+00  0.0000000000E+00  1.1825297653E+03  1.1825297653E+03  0.0000000000E+00 0. 9.
       1   -1    0    0  101    0  0.0000000000E+00  0.0000000000E+00 -8.1389035379E+01  8.1389035379E+01  0.0000000000E+00 0. 9.
-1000024    2    1    2    0    0 -1.4929394745E+00 -1.5441141657E+02  5.6621726688E+02  6.4562150801E+02  2.6903535800E+02 0. 9.
 1000023    2    1    2    0    0  1.4929394745E+00  1.5441141657E+02  5.3492346304E+02  6.1829729267E+02  2.6889276000E+02 0. 9.
 1000022    1    3    0    0    0  3.8315713642E+01 -1.8255458988E+01  1.7286200485E+02  2.1980381014E+02  1.2896157000E+02 0. 9.
     -24    2    3    0    0    0 -3.9808653117E+01 -1.3615595758E+02  3.9335526203E+02  4.2581769786E+02  8.0431188000E+01 0. 9.
 1000022    1    4    0    0    0 -3.6090650662E+00  1.0788796832E+02  3.5793642675E+02  3.9547744713E+02  1.2896157000E+02 0. 9.
      25    1    4    0    0    0  5.1020045407E+00  4.6523448247E+01  1.7698703629E+02  2.2281984554E+02  1.2701893900E+02 0. 9.
      11    1    6    0    0    0  1.5224096824E+01 -8.9826935363E+01  2.2359600025E+02  2.4144527904E+02  5.1000000000E-04 0. 9.
     -12    1    6    0    0    0 -5.5032749940E+01 -4.6329022215E+01  1.6975926177E+02  1.8437241883E+02  0.0000000000E+00 0. 9.
</event>
<event>
    11   259  1.000000E+00  1.059134E+03  7.982514E-03  9.213175E-02
      21   -1    0    0  101  102  0.0000000000E+00  0.0000000000E+00  6.1796128688E+02  6.1796128688E+02  0.0000000000E+00 0. 9.
       2   -1    0    0  102    0  0.0000000000E+00  0.0000000000E+00 -1.8331644768E+03  1.8331644768E+03  0.0000000000E+00 0. 9.
 1000021    2    1    2  101  103 -4.8624692388E+02  1.4088294778E+02 -4.3948245811E+02  1.0944015143E+03  8.6503512500E+02 0. 9.
 2000002    2    1    2  103    0  4.8624692388E+02 -1.4088294778E+02 -7.7572073179E+02  1.3567242494E+03  9.9129912700E+02 0. 9.
 1000023    2    3    0    0    0 -4.3015795929E+02 -1.6745786685E+02 -5.0469380129E+00  5.3423477524E+02  2.6889276000E+02 0. 9.
       2    1    3    0  101    0 -6.0833504489E+01  1.1131590980E+02 -2.8780270528E+02  3.1451940021E+02  3.3000000000E-01 0. 9.
      -2    1    3    0    0  103  4.7445399007E+00  1.9702490484E+02 -1.4663281482E+02  2.4564733881E+02  3.3000000000E-01 0. 9.
 1000022    1    4    0    0    0  1.1346334003E+02 -3.3396910957E+02 -8.5102153523E+02  9.3020322276E+02  1.2896157000E+02 0. 9.
       2    1    4    0  103    0  3.7278358385E+02  1.9308616179E+02  7.5300803432E+01  4.2652102663E+02  3.3000000000E-01 0. 9.
 1000022    1    5    0    0    0 -2.2632741115E+02 -4.8553719121E+01  1.5707409866E+01  2.6544183909E+02  1.2896157000E+02 0. 9.
      25    1    5    0    0    0 -2.0383054814E+02 -1.1890414773E+02 -2.0754347879E+01  2.6879293615E+02  1.2701893900E+02 0. 9.
</event>
<event>
    10   230  1.000000E+00  3.981461E+02  7.893760E-03  1.035175E-01
      -2   -1    0    0    0  101  0.0000000000E+00  0.0000000000E+00  5.2007620700E+02  5.2007620700E+02  0.0000000000E+00 0. 9.
       1   -1    0    0  101    0  0.0000000000E+00  0.0000000000E+00 -3.4303131986E+02  3.4303131986E+02  0.0000000000E+00 0. 9.
-1000024    2    1    2    0    0  2.8328549424E+02  7.6993462368E+01  2.3259932054E+02  4.6115196222E+02  2.6903535800E+02 0. 9.
 1000023    2    1    2    0    0 -2.8328549424E+02 -7.6993462368E+01 -5.5554433405E+01  4.0195556464E+02  2.6889276000E+02 0. 9.
 1000022    1    3    0    0    0  2.4928111129E+02  1.1175199299E+02  1.5653320210E+02  3.4024007742E+02  1.2896157000E+02 0. 9.
     -24    2    3    0    0    0  3.4004382945E+01 -3.4758530617E+01  7.6066118441E+01  1.2091188481E+02  8.0431188000E+01 0. 9.
 1000022    1    4    0    0    0 -1.8150638574E+02 -7.5750172189E+01 -2.7618087635E+01  2.3680477604E+02  1.2896157000E+02 0. 9.
      25    1    4    0    0    0 -1.0177910849E+02 -1.2432901799E+00 -2.7936345770E+01  1.6515078860E+02  1.2701893900E+02 0. 9.
       3    1    6    0  102    0 -2.0494462570E+01 -3.3300375490E+01  3.6904739853E+01  5.3769394895E+01  5.0000000000E-01 0. 9.
      -4    1    6    0    0  102  5.4498845515E+01 -1.4581551271E+00  3.9161378588E+01  6.7142489913E+01  1.5000000000E+00 0. 9.
</event>
<event>
    12   226  1.000000E+00  3.120581E+02  7.871965E-03  1.068042E-01
      -2   -1    0    0    0  101  0.0000000000E+00  0.0000000000E+00  7.6041129642E+01  7.6041129642E+01  0.0000000000E+00 0. 9.
       2   -1    0    0  101    0  0.0000000000E+00  0.0000000000E+00 -1.4110141250E+03  1.4110141250E+03  0.0000000000E+00 0. 9.
-1000024    2    1    2    0    0 -4.7716841889E+01  1.5074265465E+02 -4.4146487542E+02  5.4062140636E+02  2.6903535800E+02 0. 9.
 1000024    2    1    2    0    0  4.7716841889E+01 -1.5074265465E+02 -8.9350811997E+02  9.4643384831E+02  2.6903535800E+02 0. 9.
 1000022    1    3    0    0    0 -7.2737756323E+01  1.0830260180E+02 -1.5877861435E+02  2.4261485870E+02  1.2896157000E+02 0. 9.
     -24    2    3    0    0    0  2.5020914435E+01  4.2440052847E+01 -2.8268626107E+02  2.9800654766E+02  8.0431188000E+01 0. 9.
 1000022    1    4    0    0    0  4.2093610524E+01 -1.8311104176E+01 -2.5552820807E+02  2.8988432217E+02  1.2896157000E+02 0. 9.
      24    2    4    0    0    0  5.6232313644E+00 -1.3243155047E+02 -6.3797991190E+02  6.5654952615E+02  8.0431188000E+01 0. 9.
      11    1    6    0    0    0 -9.9305444952E+00  1.4164370120E+01 -6.9715964945E+00  1.8650690411E+01  5.1000000000E-04 0. 9.
     -12    1    6    0    0    0  3.4951458930E+01  2.8275682728E+01 -2.7571466458E+02  2.7935585725E+02  0.0000000000E+00 0. 9.
      -1    1    8    0    0  102  2.2814920364E+01 -1.0621332969E+02 -3.4022451503E+02  3.5714789867E+02  3.3000000000E-01 0. 9.
       2    1    8    0  102    0 -1.7191689000E+01 -2.6218220782E+01 -2.9775539687E+02  2.9940162748E+02  3.3000000000E-01 0. 9.
</event>
<event>
    12   226  1.000000E+00  2.786056E+02  7.861862E-03  1.084061E-01
      -2   -1    0    0    0  101  0.0000000000E+00  0.0000000000E+00  1.2038312621E+02  1.2038312621E+02  0.0000000000E+00 0. 9.
       2   -1    0    0  101    0  0.0000000000E+00  0.0000000000E+00 -6.5226609936E+02  6.5226609936E+02  0.0000000000E+00 0. 9.
-1000024    2    1    2    0    0  6.5529260489E+01 -3.0772553054E+01 -2.2456389956E+02  3.5784075067E+02  2.6903535800E+02 0. 9.
 1000024    2    1    2    0    0 -6.5529260489E+01  3.0772553054E+01 -3.0731907359E+02  4.1480847490E+02  2.6903535800E+02 0. 9.
 1000022    1    3    0    0    0  2.3272046392E+01 -9.6612696142E+01 -1.0424905706E+02  1.9332499485E+02  1.2896157000E+02 0. 9.
     -24    2    3    0    0    0  4.2257214097E+01  6.5840143088E+01 -1.2031484249E+02  1.6451575582E+02  8.0431188000E+01 0. 9.
 1000022    1    4    0    0    0  1.9737899028E+01 -4.5538076475E+01 -1.3964255973E+02  1.9645465658E+02  1.2896157000E+02 0. 9.
      24    2    4    0    0    0 -8.5267159517E+01  7.6310629529E+01 -1.6767651386E+02  2.1835381832E+02  8.0431188000E+01 0. 9.
      15    1    6    0    0    0 -2.1614088784E+00 -1.3906266948E+01 -9.0747121287E-01  1.4213978394E+01  1.7770000000E+00 0. 9.
     -16    1    6    0    0    0  4.4418622975E+01  7.9746410036E+01 -1.1940737128E+02  1.5030177742E+02  0.0000000000E+00 0. 9.
      -3    1    8    0    0  102  5.9283969958E+00 -2.6349850930E+00 -4.7972070158E+01  4.8411347354E+01  5.0000000000E-01 0. 9.
       4    1    8    0  102    0 -9.1195556513E+01  7.8945614622E+01 -1.1970444370E+02  1.6994247097E+02  1.5000000000E+00 0. 9.
</event>
<event>
    12   230  1.000000E+00  3.070851E+02  7.870532E-03  1.070282E-01
       2   -1    0    0  101    0  0.0000000000E+00  0.0000000000E+00  1.3552228540E+03  1.3552228540E+03  0.0000000000E+00 0. 9.
      -1   -1    0    0    0  101  0.0000000000E+00  0.0000000000E+00 -7.0367942992E+01  7.0367942992E+01  0.0000000000E+00 0. 9.
 1000024    2    1    2    0    0  1.4623111541E+02  2.4000770630E+01  7.1781230302E+02  7.8076507499E+02  2.6903535800E+02 0. 9.
 1000023    2    1    2    0    0 -1.4623111541E+02 -2.4000770630E+01  5.6704260803E+02  6.4482572204E+02  2.6889276000E+02 0. 9.
 1000022    1    3    0    0    0  3.5201559302E+00  3.6983688520E+01  2.3334106704E+02  2.6918269785E+02  1.2896157000E+02 0. 9.
      24    2    3    0    0    0  1.4271095948E+02 -1.2982917891E+01  4.8447123597E+02  5.1158237714E+02  8.0431188000E+01 0. 9.
 1000022    1    4    0    0    0 -1.4585614821E+02  7.4484204797E+00  2.7321192286E+02  3.3556718593E+02  1.2896157000E+02 0. 9.
      23    2    4    0    0    0 -3.7496720263E-01 -3.1449191109E+01  2.9383068517E+02  3.0925853612E+02  9.1187600000E+01 0. 9.
     -13    1    6    0    0    0  3.6352431451E+01 -2.3756343686E+01  2.5193198106E+02  2.5564740832E+02  1.0566000000E-01 0. 9.
      14    1    6    0    0    0  1.0635852803E+02  1.0773425795E+01  2.3253925492E+02  2.5593496882E+02  0.0000000000E+00 0. 9.
       3    1    8    0  102    0 -8.0365544043E+00  9.1117743414E+00  2.4506365608E+02  2.4536514864E+02  5.0000000000E-01 0. 9.
      -3    1    8    0    0  102  7.6615872017E+00 -4.0560965451E+01  4.8767029089E+01  6.3893387474E+01  5.0000000000E-01 0. 9.
</event>
<event>
    12   226  1.000000E+00  3.670511E+02  7.886472E-03  1.045918E-01
      -1   -1    0    0    0  101  0.0000000000E+00  0.0000000000E+00  4.6146593961E+02  4.6146593961E+02  0.0000000000E+00 0. 9.
       1   -1    0    0  101    0  0.0000000000E+00  0.0000000000E+00 -4.3313848374E+02  4.3313848374E+02  0.0000000000E+00 0. 9.
 1000024    2    1    2    0    0  2.4184746762E+02  6.2098859524E+01  2.6954101455E+02  4.5538867830E+02  2.6903535800E+02 0. 9.
-1000024    2    1    2    0    0 -2.4184746762E+02 -6.2098859524E+01 -2.4121355867E+02  4.3921574504E+02  2.6903535800E+02 0. 9.
 1000022    1    3    0    0    0  2.2358118819E+02  9.7628489175E+01  1.8643997566E+02  3.3303276216E+02  1.2896157000E+02 0. 9.
      24    2    3    0    0    0  1.8266279428E+01 -3.5529629651E+01  8.3101038886E+01  1.2235591614E+02  8.0431188000E+01 0. 9.
 1000022    1    4    0    0    0 -1.1799231022E+02  2.6700419551E+01 -5.4261852002E+01  1.8496089531E+02  1.2896157000E+02 0. 9.
     -24    2    4    0    0    0 -1.2385515740E+02 -8.8799279075E+01 -1.8695170667E+02  2.5425484973E+02  8.0431188000E+01 0. 9.
      -3    1    6    0    0  102  2.7702809382E+01  1.4036407736E+01  8.3596522032E+00  3.2165201301E+01  5.0000000000E-01 0. 9.
       4    1    6    0  102    0 -9.4365299540E+00 -4.9566037387E+01  7.4741386683E+01  9.0190714839E+01  1.5000000000E+00 0. 9.
      15    1    8    0    0    0 -4.4920014893E+01  8.9114219090E+00 -3.9044767899E+01  6.0206916611E+01  1.7770000000E+00 0. 9.
     -16    1    8    0    0    0 -7.8935142505E+01 -9.7710700984E+01 -1.4790693877E+02  1.9404793312E+02  0.0000000000E+00 0. 9.
</event>
<event>
    10   230  1.000000E+00  2.818097E+02  7.862880E-03  1.082424E-01
      -1   -1    0    0    0  101  0.0000000000E+00  0.0000000000E+00  2.2930459624E+02  2.2930459624E+02  0.0000000000E+00 0. 9.
       2   -1    0    0  101    0  0.0000000000E+00  0.0000000000E+00 -3.8889722145E+02  3.8889722145E+02  0.0000000000E+00 0. 9.
 1000023    2    1    2    0    0  1.8885797839E+01 -8.1965456117E+01 -1.8203416200E+02  3.3543220160E+02  2.6889276000E+02 0. 9.
 1000024    2    1    2    0    0 -1.8885797839E+01  8.1965456117E+01  2.2441536795E+01  2.8276961609E+02  2.6903535800E+02 0. 9.
 1000022    1    3    0    0    0 -1.9801262491E+00 -6.3974984197E+01 -5.6277986716E+01  1.5458013400E+02  1.2896157000E+02 0. 9.
      25    1    3    0    0    0  2.0865924088E+01 -1.7990471920E+01 -1.2575617528E+02  1.8085206760E+02  1.2701893900E+02 0. 9.
 1000022    1    4    0    0    0 -3.7222260195E+01  6.2981197901E+01  9.0888888632E+01  1.7390803477E+02  1.2896157000E+02 0. 9.
      24    2    4    0    0    0  1.8336462356E+01  1.8984258216E+01 -6.8447351837E+01  1.0886158132E+02  8.0431188000E+01 0. 9.
      -3    1    8    0    0  102  2.5499336408E+01 -1.3918648372E+01 -6.9299396679E+01  7.5143870740E+01  5.0000000000E-01 0. 9.
       4    1    8    0  102    0 -7.1628740515E+00  3.2902906588E+01  8.5204484174E-01  3.3717710584E+01  1.5000000000E+00 0. 9.
</event>
</LesHouchesEvents>
